                               Psi4 1.4 release

  ==> Input File <==

--------------------------------------------------------------------------
memory 32 GB

molecule mol {
1 1
	    C     1.5664004643  -0.4568570874  -2.1364966024
	    C     0.5532147560   0.5763237859  -0.0481608803
	    C     0.7026123884   2.0241860516   0.2725072817
	    C     2.2275181453   2.1790682995   0.4538341003
	    C     2.7717458992   1.2944711342  -0.6729776601
	    C     1.8104665446   0.0833578751  -0.7092745540
	    H     2.2083642595  -0.7361778109  -0.0770479952
	    H     3.8180738824   0.9892351802  -0.5307550722
	    H     2.7078340252   1.8337641993  -1.6340016054
	    H     2.5242208432   1.7892762622   1.4418837333
	    H     2.5470182319   3.2284797822   0.3898299153
	    H     0.0745941425   2.3837041250   1.0981409597
	    H     0.4055629036   2.5706915301  -0.6504917965
	    C    -0.5793948178  -0.2183375491   0.2473418683
	    C    -0.5182226301  -1.6456849943   0.1412771940
	    C    -1.6440597591  -2.4118594680   0.4319548861
	    C    -2.8492644696  -1.7794061807   0.8054993615
	    C    -2.9285045922  -0.3753325623   0.9121625280
	    C    -1.8020448757   0.4040259034   0.6588220330
	    H    -1.8629454972   1.4920986500   0.7349170779
	    H    -3.8691471456   0.0981439531   1.2038778916
	    H    -3.7329421632  -2.3875837345   1.0234578238
	    H    -1.5955576323  -3.5019939581   0.3736733784
	    H     0.4219423786  -2.1354228587  -0.1221949151
	    H     0.9389584655  -1.3588049971  -2.1496507219
	    H     2.5398277521  -0.6988428534  -2.5898440410
	    H     1.0843462196   0.3155920126  -2.7564547043
}

set scf_type df
set basis cc-pVDZ
set reference rhf

mol.update_geometry()
mol.symmetrize(1e-3)

e, wfn = frequencies('mp2', return_wfn=True)
oeprop(wfn, "MULLIKEN_CHARGES")
mol.print_out()
print_variables()
--------------------------------------------------------------------------

    Molecular point group: c1
  Charge       = 1
  Multiplicity = 1
  Basis Set: CC-PVDZ
    Blend: CC-PVDZ
  Basis Set: (CC-PVDZ AUX)
    Blend: CC-PVDZ-JKFIT
  @DF-RHF Final Energy:  -462.95357872417640
    Total Energy =                       -462.9535787241763956
  Basis Set: (CC-PVDZ AUX)
    Blend: CC-PVDZ-RI
    Molecular point group: c1
  Basis Set: CC-PVDZ
    Blend: CC-PVDZ
  Basis Set: (CC-PVDZ AUX)
    Blend: CC-PVDZ-JKFIT
  Basis Set: (CC-PVDZ AUX)
    Blend: CC-PVDZ-JKFIT
	 Reference Energy          =    -462.9535787241763956 [Eh]
	 Singles Energy            =      -0.0000000000000000 [Eh]
	 Same-Spin Energy          =      -0.4154190636504718 [Eh]
	 Opposite-Spin Energy      =      -1.2094419894008654 [Eh]
	 Correlation Energy        =      -1.6248610530513372 [Eh]
	 Total Energy              =    -464.5784397772277430 [Eh]
	 SCS Total Energy          =    -464.5433821326742532 [Eh]
  @DF-RHF Final Energy:  -462.95357872341839
    Total Energy =                       -462.9535787234184454
  @DF-RHF Final Energy:  -462.95357691378132
    Total Energy =                       -462.9535769137812622
  @DF-RHF Final Energy:  -462.95357893722030
    Total Energy =                       -462.9535789372202998
  @DF-RHF Final Energy:  -462.95357923827282
    Total Energy =                       -462.9535792382728232
  @DF-RHF Final Energy:  -462.95357652062449
    Total Energy =                       -462.9535765206245514
  @DF-RHF Final Energy:  -462.95358418877669
    Total Energy =                       -462.9535841887766310
  @DF-RHF Final Energy:  -462.95357192584061
    Total Energy =                       -462.9535719258406061
  @DF-RHF Final Energy:  -462.95359211604716
    Total Energy =                       -462.9535921160471617
  @DF-RHF Final Energy:  -462.95356389992844
    Total Energy =                       -462.9535638999284402
  @DF-RHF Final Energy:  -462.95358482277464
    Total Energy =                       -462.9535848227747010
  @DF-RHF Final Energy:  -462.95357124609018
    Total Energy =                       -462.9535712460901777
  @DF-RHF Final Energy:  -462.95357476994985
    Total Energy =                       -462.9535747699499098
  @DF-RHF Final Energy:  -462.95358190607470
    Total Energy =                       -462.9535819060747599
  @DF-RHF Final Energy:  -462.95358218256263
    Total Energy =                       -462.9535821825626272
  @DF-RHF Final Energy:  -462.95357395251739
    Total Energy =                       -462.9535739525174449
  @DF-RHF Final Energy:  -462.95356478641281
    Total Energy =                       -462.9535647864128123
  @DF-RHF Final Energy:  -462.95359147195182
    Total Energy =                       -462.9535914719518814
  @DF-RHF Final Energy:  -462.95358099485736
    Total Energy =                       -462.9535809948573615
  @DF-RHF Final Energy:  -462.95357483738280
    Total Energy =                       -462.9535748373828028
  @DF-RHF Final Energy:  -462.95357193517043
    Total Energy =                       -462.9535719351704302
  @DF-RHF Final Energy:  -462.95358329147570
    Total Energy =                       -462.9535832914757520
  @DF-RHF Final Energy:  -462.95354260893112
    Total Energy =                       -462.9535426089311159
  @DF-RHF Final Energy:  -462.95361150215251
    Total Energy =                       -462.9536115021525120
  @DF-RHF Final Energy:  -462.95356824904178
    Total Energy =                       -462.9535682490418367
  @DF-RHF Final Energy:  -462.95358385218833
    Total Energy =                       -462.9535838521883306
  @DF-RHF Final Energy:  -462.95356792898866
    Total Energy =                       -462.9535679289886048
  @DF-RHF Final Energy:  -462.95358835151626
    Total Energy =                       -462.9535883515162595
  @DF-RHF Final Energy:  -462.95360175273549
    Total Energy =                       -462.9536017527354943
  @DF-RHF Final Energy:  -462.95355171613096
    Total Energy =                       -462.9535517161309599
  @DF-RHF Final Energy:  -462.95357223796196
    Total Energy =                       -462.9535722379619074
  @DF-RHF Final Energy:  -462.95358248433092
    Total Energy =                       -462.9535824843309229
  @DF-RHF Final Energy:  -462.95357666950957
    Total Energy =                       -462.9535766695096299
  @DF-RHF Final Energy:  -462.95357900634900
    Total Energy =                       -462.9535790063489458
  @DF-RHF Final Energy:  -462.95354027680685
    Total Energy =                       -462.9535402768068479
  @DF-RHF Final Energy:  -462.95361104291038
    Total Energy =                       -462.9536110429103246
  @DF-RHF Final Energy:  -462.95354103952695
    Total Energy =                       -462.9535410395269537
  @DF-RHF Final Energy:  -462.95361024833949
    Total Energy =                       -462.9536102483394870
  @DF-RHF Final Energy:  -462.95361933734489
    Total Energy =                       -462.9536193373448896
  Charge       = 1
  Multiplicity = 1
  Basis Set: CC-PVDZ
    Blend: CC-PVDZ
  Basis Set: (CC-PVDZ AUX)
    Blend: CC-PVDZ-JKFIT

    Orbital Energies [Eh]
    ---------------------

    Doubly Occupied:

       1A    -11.498363     2A    -11.434388     3A    -11.433846
       4A    -11.432145     5A    -11.421271     6A    -11.406048
       7A    -11.405584     8A    -11.401602     9A    -11.401156
      10A    -11.378793    11A    -11.376806    12A    -11.372907
      13A     -1.347137    14A     -1.302492    15A     -1.210035
      16A     -1.191239    17A     -1.173171    18A     -1.112829
      19A     -1.054532    20A     -1.001105    21A     -0.996367
      22A     -0.941353    23A     -0.899992    24A     -0.866659
      25A     -0.826565    26A     -0.810039    27A     -0.784599
      28A     -0.772819    29A     -0.760403    30A     -0.738456
      31A     -0.720536    32A     -0.703880    33A     -0.696315
      34A     -0.681028    35A     -0.667899    36A     -0.659308
      37A     -0.648833    38A     -0.634213    39A     -0.628246
      40A     -0.615496    41A     -0.610225    42A     -0.515843
      43A     -0.500921

  @DF-RHF Final Energy:  -462.95353136990224

   => Energetics <=

    Nuclear Repulsion Energy =            668.6836475141996061
    One-Electron Energy =               -1937.2034685738790358
    Two-Electron Energy =                 805.5662896897772498
    Total Energy =                       -462.9535313699022936

  Dipole Moment: [D]
     X:    -0.7006      Y:     0.0253      Z:     0.3271     Total:     0.7737

  Basis Set: (CC-PVDZ AUX)
    Blend: CC-PVDZ-RI
    Molecular point group: c1
  Basis Set: CC-PVDZ
    Blend: CC-PVDZ
  Basis Set: (CC-PVDZ AUX)
    Blend: CC-PVDZ-JKFIT
  Basis Set: (CC-PVDZ AUX)
    Blend: CC-PVDZ-JKFIT
	 Reference Energy          =    -462.9535313699022367 [Eh]
	 Singles Energy            =      -0.0000000000000000 [Eh]
	 Same-Spin Energy          =      -0.4154233085773262 [Eh]
	 Opposite-Spin Energy      =      -1.2094815300521293 [Eh]
	 Correlation Energy        =      -1.6249048386294556 [Eh]
	 Total Energy              =    -464.5784362085316843 [Eh]

	 ================> DF-SCS-MP2 Energies <==================
	-----------------------------------------------------------
	 SCS Same-Spin Scale       =       0.3333333333333333 [-]
	 SCS Opposite-Spin Scale   =       1.2000000000000000 [-]
	 SCS Same-Spin Energy      =      -0.1384744361924420 [Eh]
	 SCS Opposite-Spin Energy  =      -1.4513778360625551 [Eh]
	 SCS Correlation Energy    =      -1.5898522722549973 [Eh]
	 SCS Total Energy          =    -464.5433836421572096 [Eh]
	-----------------------------------------------------------

  -Total Gradient:
     Atom            X                  Y                   Z
    ------   -----------------  -----------------  -----------------
       1       -0.000392359602    -0.000433021853     0.000689714865
       2        0.000063308569     0.000013429910    -0.000018653500
       3       -0.000033399267    -0.000070594501    -0.000015630198
       4        0.000068653807     0.000001884602    -0.000031791062
       5        0.000036227971     0.000028709401     0.000002552307
       6        0.000002622695     0.000162458458    -0.000037217877
       7        0.000040396567    -0.000065495523     0.000112150095
       8        0.000014751166     0.000003808546    -0.000001899137
       9       -0.000008869993    -0.000045800781     0.000031902568
      10        0.000028164796    -0.000012172122     0.000037149079
      11       -0.000007184131    -0.000015318450     0.000007319304
      12       -0.000048667339     0.000033835795     0.000070925447
      13       -0.000008823468     0.000044571404    -0.000076415148
      14       -0.000003850127     0.000041151985    -0.000045658155
      15        0.000023890710     0.000094608100     0.000044018229
      16       -0.000025593401    -0.000113423697    -0.000019770974
      17       -0.000051910942     0.000077456333     0.000006066873
      18       -0.000154123322    -0.000078837428     0.000052687151
      19        0.000104946081     0.000109464250     0.000009441967
      20       -0.000010778630     0.000018125805     0.000005458818
      21       -0.000061766927     0.000007379453     0.000025670460
      22       -0.000190028788    -0.000056928367     0.000034950018
      23       -0.000004047753    -0.000041455725     0.000016753101
      24        0.000237346917    -0.000104590721    -0.000062315666
      25       -0.000011651838    -0.000034216883    -0.000009655956
      26        0.001022646947    -0.000297847938    -0.000330500864
      27       -0.000629900704     0.000732819941    -0.000497251749

  Vibration                       7                   8                   9
  Freq [cm^-1]                 62.7070             80.3145             103.5993
  Irrep                           A                   A                   A
  Reduced mass [u]              2.5972              3.2801              3.2377
  Force const [mDyne/A]         0.0060              0.0125              0.0205

  Vibration                       10                  11                  12
  Freq [cm^-1]                 166.6327            201.7108            222.2831
  Irrep                           A                   A                   A
  Reduced mass [u]              3.3559              2.6450              1.1298
  Force const [mDyne/A]         0.0549              0.0634              0.0329

  Vibration                       13                  14                  15
  Freq [cm^-1]                 268.3304            330.9157            381.9923
  Irrep                           A                   A                   A
  Reduced mass [u]              2.4833              2.6035              2.8946
  Force const [mDyne/A]         0.1053              0.1680              0.2489

  Vibration                       16                  17                  18
  Freq [cm^-1]                 385.1765            417.9272            441.7614
  Irrep                           A                   A                   A
  Reduced mass [u]              2.8380              3.3875              3.2124
  Force const [mDyne/A]         0.2481              0.3486              0.3694

  Vibration                       19                  20                  21
  Freq [cm^-1]                 527.7706            596.6396            605.3121
  Irrep                           A                   A                   A
  Reduced mass [u]              1.8754              2.9804              4.8629
  Force const [mDyne/A]         0.3078              0.6251              1.0498

  Vibration                       22                  23                  24
  Freq [cm^-1]                 620.9797            673.1812            699.4384
  Irrep                           A                   A                   A
  Reduced mass [u]              3.6844              2.8652              3.1736
  Force const [mDyne/A]         0.8371              0.7650              0.9147

  Vibration                       25                  26                  27
  Freq [cm^-1]                 760.6616            835.6436            846.5185
  Irrep                           A                   A                   A
  Reduced mass [u]              1.4529              1.3012              1.7134
  Force const [mDyne/A]         0.4953              0.5354              0.7234

  Vibration                       28                  29                  30
  Freq [cm^-1]                 870.4850            911.8370            951.6095
  Irrep                           A                   A                   A
  Reduced mass [u]              1.7788              2.2833              1.7719
  Force const [mDyne/A]         0.7941              1.1186              0.9454

  Vibration                       31                  32                  33
  Freq [cm^-1]                 960.5015            969.7884            976.3788
  Irrep                           A                   A                   A
  Reduced mass [u]              1.2694              1.3645              1.3613
  Force const [mDyne/A]         0.6900              0.7561              0.7646

  Vibration                       34                  35                  36
  Freq [cm^-1]                 987.4434            992.1498            995.7680
  Irrep                           A                   A                   A
  Reduced mass [u]              2.6079              1.4695              3.9498
  Force const [mDyne/A]         1.4982              0.8523              2.3075

  Vibration                       37                  38                  39
  Freq [cm^-1]                1004.6094           1038.6923           1044.1956
  Irrep                           A                   A                   A
  Reduced mass [u]              1.2887              1.6908              2.1868
  Force const [mDyne/A]         0.7663              1.0748              1.4048

  Vibration                       40                  41                  42
  Freq [cm^-1]                1070.5986           1110.7033           1134.2582
  Irrep                           A                   A                   A
  Reduced mass [u]              2.1882              1.6668              1.9310
  Force const [mDyne/A]         1.4777              1.2115              1.4637

  Vibration                       43                  44                  45
  Freq [cm^-1]                1171.7091           1192.9054           1204.4023
  Irrep                           A                   A                   A
  Reduced mass [u]              1.7471              1.0749              1.5895
  Force const [mDyne/A]         1.4132              0.9012              1.3584

  Vibration                       46                  47                  48
  Freq [cm^-1]                1210.4877           1221.3946           1245.6558
  Irrep                           A                   A                   A
  Reduced mass [u]              1.1239              1.8676              1.5092
  Force const [mDyne/A]         0.9703              1.6415              1.3797

  Vibration                       49                  50                  51
  Freq [cm^-1]                1247.5471           1294.0895           1313.4754
  Irrep                           A                   A                   A
  Reduced mass [u]              1.4020              1.5778              1.3895
  Force const [mDyne/A]         1.2856              1.5568              1.4124

  Vibration                       52                  53                  54
  Freq [cm^-1]                1326.6849           1347.8964           1355.8255
  Irrep                           A                   A                   A
  Reduced mass [u]              1.4295              1.5400              1.4737
  Force const [mDyne/A]         1.4825              1.6485              1.5961

  Vibration                       55                  56                  57
  Freq [cm^-1]                1404.9119           1413.5748           1455.6974
  Irrep                           A                   A                   A
  Reduced mass [u]              1.2323              1.1214              1.9548
  Force const [mDyne/A]         1.4331              1.3202              2.4406

  Vibration                       58                  59                  60
  Freq [cm^-1]                1465.1864           1485.2666           1491.0907
  Irrep                           A                   A                   A
  Reduced mass [u]              2.5016              1.0986              1.0510
  Force const [mDyne/A]         3.1641              1.4279              1.3768

  Vibration                       61                  62                  63
  Freq [cm^-1]                1495.9149           1500.1809           1537.8050
  Irrep                           A                   A                   A
  Reduced mass [u]              1.0761              1.1073              7.2003
  Force const [mDyne/A]         1.4188              1.4683             10.0324

  Vibration                       64                  65                  66
  Freq [cm^-1]                1576.7764           1606.5277           1674.4158
  Irrep                           A                   A                   A
  Reduced mass [u]              4.7600              4.8667              6.2201
  Force const [mDyne/A]         6.9727              7.4005             10.2748

  Vibration                       67                  68                  69
  Freq [cm^-1]                3021.8997           3058.0869           3099.0188
  Irrep                           A                   A                   A
  Reduced mass [u]              1.0683              1.0810              1.0357
  Force const [mDyne/A]         5.7477              5.9562              5.8607

  Vibration                       70                  71                  72
  Freq [cm^-1]                3105.8175           3118.3740           3188.8903
  Irrep                           A                   A                   A
  Reduced mass [u]              1.0665              1.0637              1.1020
  Force const [mDyne/A]         6.0614              6.0942              6.6025

  Vibration                       73                  74                  75
  Freq [cm^-1]                3194.1474           3199.4706           3201.7991
  Irrep                           A                   A                   A
  Reduced mass [u]              1.0937              1.1052              1.1038
  Force const [mDyne/A]         6.5742              6.6656              6.6670

  Vibration                       76                  77                  78
  Freq [cm^-1]                3219.0912           3239.3451           3254.2416
  Irrep                           A                   A                   A
  Reduced mass [u]              1.1039              1.0889              1.0889
  Force const [mDyne/A]         6.7400              6.7322              6.7940

  Vibration                       79                  80                  81
  Freq [cm^-1]                3256.2474           3268.0572           3270.0922
  Irrep                           A                   A                   A
  Reduced mass [u]              1.0921              1.0974              1.1005
  Force const [mDyne/A]         6.8224              6.9057              6.9338

  ==> Thermochemistry Components <==

  Entropy, S
    Electronic S            0.000 [cal/(mol K)]        0.000 [J/(mol K)]       0.00000000 [mEh/K] (multiplicity = 1)
    Translational S        41.102 [cal/(mol K)]      171.973 [J/(mol K)]       0.06550099 [mEh/K] (mol. weight = 159.1174 [u], P = 101325.00 [Pa])
    Rotational S           30.671 [cal/(mol K)]      128.329 [J/(mol K)]       0.04887788 [mEh/K] (symmetry no. = 1)
    Vibrational S          29.933 [cal/(mol K)]      125.239 [J/(mol K)]       0.04770105 [mEh/K]
  Total S                 101.707 [cal/(mol K)]      425.541 [J/(mol K)]       0.16207992 [mEh/K]
  Correction S              0.000 [cal/(mol K)]        0.000 [J/(mol K)]       0.00000000 [mEh/K]

  Constant volume heat capacity, Cv
    Electronic Cv           0.000 [cal/(mol K)]        0.000 [J/(mol K)]       0.00000000 [mEh/K]
    Translational Cv        2.981 [cal/(mol K)]       12.472 [J/(mol K)]       0.00475022 [mEh/K]
    Rotational Cv           2.981 [cal/(mol K)]       12.472 [J/(mol K)]       0.00475022 [mEh/K]
    Vibrational Cv         37.091 [cal/(mol K)]      155.187 [J/(mol K)]       0.05910754 [mEh/K]
  Total Cv                 43.052 [cal/(mol K)]      180.130 [J/(mol K)]       0.06860797 [mEh/K]
  Correction Cv             0.000 [cal/(mol K)]        0.000 [J/(mol K)]       0.00000000 [mEh/K]

  Constant pressure heat capacity, Cp
    Electronic Cp           0.000 [cal/(mol K)]        0.000 [J/(mol K)]       0.00000000 [mEh/K]
    Translational Cp        4.968 [cal/(mol K)]       20.786 [J/(mol K)]       0.00791703 [mEh/K]
    Rotational Cp           2.981 [cal/(mol K)]       12.472 [J/(mol K)]       0.00475022 [mEh/K]
    Vibrational Cp         37.091 [cal/(mol K)]      155.187 [J/(mol K)]       0.05910754 [mEh/K]
  Total Cp                 45.039 [cal/(mol K)]      188.445 [J/(mol K)]       0.07177479 [mEh/K]
  Correction Cp             0.000 [cal/(mol K)]        0.000 [J/(mol K)]       0.00000000 [mEh/K]

  ==> Thermochemistry Energy Analysis <==

  Raw electronic energy, E0
  Total E0, Electronic energy at well bottom at 0 [K]                 -464.57843978 [Eh]

  Zero-point energy, ZPE_vib = Sum_i nu_i / 2
    Electronic ZPE          0.000 [kcal/mol]        0.000 [kJ/mol]       0.00000000 [Eh]
    Translational ZPE       0.000 [kcal/mol]        0.000 [kJ/mol]       0.00000000 [Eh]
    Rotational ZPE          0.000 [kcal/mol]        0.000 [kJ/mol]       0.00000000 [Eh]
    Vibrational ZPE       150.366 [kcal/mol]      629.131 [kJ/mol]       0.23962340 [Eh]       52591.258 [cm^-1]
  Correction ZPE          150.366 [kcal/mol]      629.131 [kJ/mol]       0.23962340 [Eh]       52591.258 [cm^-1]
  Total ZPE, Electronic energy at 0 [K]                               -464.33881637 [Eh]

  Thermal Energy, E (includes ZPE)
    Electronic E            0.000 [kcal/mol]        0.000 [kJ/mol]       0.00000000 [Eh]
    Translational E         0.889 [kcal/mol]        3.718 [kJ/mol]       0.00141628 [Eh]
    Rotational E            0.889 [kcal/mol]        3.718 [kJ/mol]       0.00141628 [Eh]
    Vibrational E         155.380 [kcal/mol]      650.111 [kJ/mol]       0.24761411 [Eh]
  Correction E            157.158 [kcal/mol]      657.548 [kJ/mol]       0.25044666 [Eh]
  Total E, Electronic energy at  298.15 [K]                           -464.32799311 [Eh]

  Enthalpy, H_trans = E_trans + k_B * T
    Electronic H            0.000 [kcal/mol]        0.000 [kJ/mol]       0.00000000 [Eh]
    Translational H         1.481 [kcal/mol]        6.197 [kJ/mol]       0.00236046 [Eh]
    Rotational H            0.889 [kcal/mol]        3.718 [kJ/mol]       0.00141628 [Eh]
    Vibrational H         155.380 [kcal/mol]      650.111 [kJ/mol]       0.24761411 [Eh]
  Correction H            157.750 [kcal/mol]      660.027 [kJ/mol]       0.25139085 [Eh]
  Total H, Enthalpy at  298.15 [K]                                    -464.32704893 [Eh]

  Gibbs free energy, G = H - T * S
    Electronic G            0.000 [kcal/mol]        0.000 [kJ/mol]       0.00000000 [Eh]
    Translational G       -10.773 [kcal/mol]      -45.076 [kJ/mol]      -0.01716866 [Eh]
    Rotational G           -8.256 [kcal/mol]      -34.543 [kJ/mol]      -0.01315666 [Eh]
    Vibrational G         146.456 [kcal/mol]      612.771 [kJ/mol]       0.23339204 [Eh]
  Correction G            127.426 [kcal/mol]      533.152 [kJ/mol]       0.20306672 [Eh]
  Total G, Free enthalpy at  298.15 [K]                               -464.37537305 [Eh]

  Mulliken Charges: (a.u.)
   Center  Symbol    Alpha    Beta     Spin     Total
       1     C     3.00729  3.00729  0.00000 -0.01458
       2     C     2.99737  2.99737  0.00000  0.00526
       3     C     3.01060  3.01060  0.00000 -0.02120
       4     C     3.02431  3.02431  0.00000 -0.04862
       5     C     3.00644  3.00644  0.00000 -0.01288
       6     C     3.10553  3.10553  0.00000 -0.21107
       7     H     0.44985  0.44985  0.00000  0.10030
       8     H     0.45950  0.45950  0.00000  0.08100
       9     H     0.46691  0.46691  0.00000  0.06617
      10     H     0.46339  0.46339  0.00000  0.07322
      11     H     0.45837  0.45837  0.00000  0.08326
      12     H     0.45120  0.45120  0.00000  0.09759
      13     H     0.44079  0.44079  0.00000  0.11841
      14     C     3.02132  3.02132  0.00000 -0.04264
      15     C     2.99575  2.99575  0.00000  0.00851
      16     C     2.98184  2.98184  0.00000  0.03633
      17     C     2.98293  2.98293  0.00000  0.03413
      18     C     2.98233  2.98233  0.00000  0.03534
      19     C     2.99351  2.99351  0.00000  0.01297
      20     H     0.46736  0.46736  0.00000  0.06529
      21     H     0.46009  0.46009  0.00000  0.07981
      22     H     0.45728  0.45728  0.00000  0.08544
      23     H     0.46044  0.46044  0.00000  0.07912
      24     H     0.46633  0.46633  0.00000  0.06734
      25     H     0.46918  0.46918  0.00000  0.06163
      26     H     0.45395  0.45395  0.00000  0.09211
      27     H     0.46613  0.46613  0.00000  0.06774

   Total alpha = 43.00000, Total beta = 43.00000, Total charge =  1.00000

    Molecular point group: c1

    Geometry (in Angstrom), charge = 1, multiplicity = 1:

       Center              X                  Y                   Z               Mass
    ------------   -----------------  -----------------  -----------------  -----------------
         C            1.566400464306    -0.456857087399    -2.136496602398    12.000000000000
         C            0.553214756006     0.576323785901    -0.048160880298    12.000000000000
         C            0.702612388406     2.024186051601     0.272507281702    12.000000000000
         C            2.227518145306     2.179068299501     0.453834100302    12.000000000000
         C            2.771745899206     1.294471134201    -0.672977660098    12.000000000000
         C            1.810466544606     0.083357875101    -0.709274553998    12.000000000000
         H            2.208364259506    -0.736177810899    -0.077047995198     1.007825032230
         H            3.818073882406     0.989235180201    -0.530755072198     1.007825032230
         H            2.707834025206     1.833764199301    -1.634001605398     1.007825032230
         H            2.524220843206     1.789276262201     1.441883733302     1.007825032230
         H            2.547018231906     3.228479782201     0.389829915302     1.007825032230
         H            0.074594142506     2.383704125001     1.098140959702     1.007825032230
         H            0.405562903606     2.570691530101    -0.650491796498     1.007825032230
         C           -0.579394817794    -0.218337549099     0.247341868302    12.000000000000
         C           -0.518222630094    -1.645684994299     0.141277194002    12.000000000000
         C           -1.644059759094    -2.411859467999     0.431954886102    12.000000000000
         C           -2.849264469594    -1.779406180699     0.805499361502    12.000000000000
         C           -2.928504592194    -0.375332562299     0.912162528002    12.000000000000
         C           -1.802044875694     0.404025903401     0.658822033002    12.000000000000
         H           -1.862945497194     1.492098650001     0.734917077902     1.007825032230
         H           -3.869147145594     0.098143953101     1.203877891602     1.007825032230
         H           -3.732942163194    -2.387583734499     1.023457823802     1.007825032230
         H           -1.595557632294    -3.501993958099     0.373673378402     1.007825032230
         H            0.421942378606    -2.135422858699    -0.122194915098     1.007825032230
         H            0.938958465506    -1.358804997099    -2.149650721898     1.007825032230
         H            2.539827752106    -0.698842853399    -2.589844040998     1.007825032230
         H            1.084346219606     0.315592012601    -2.756454704298     1.007825032230

*** Psi4 exiting successfully. Buy a developer a beer!
