                               Psi4 1.4 release

  ==> Input File <==

--------------------------------------------------------------------------
molecule mol {
0 1
 C     0.355130     0.111221    -1.467412
 C    -0.000000    -0.000000     0.000000
 C     0.828100     0.881905     0.953535
 C     2.091555     0.051810     1.254924
 C     2.370953    -0.722993    -0.049363
 C     0.983556    -0.988346    -0.633510
 C    -1.373576    -0.413221     0.414448
 C    -1.542792    -1.321567     1.480545
 C    -2.825059    -1.692334     1.911870
 C    -3.961673    -1.159299     1.279913
 C    -3.805653    -0.253936     0.218219
 C    -2.519836     0.117392    -0.208007
 H    -2.398432     0.829298    -1.030811
 H    -4.686419     0.165723    -0.277661
 O    -5.224199    -1.526822     1.698665
 H    -2.939181    -2.402495     2.736730
 H    -0.656700    -1.746978     1.964470
 H     0.659437    -2.015061    -0.827996
 H    -0.405740    -0.188168    -2.193765
 H     0.996446     0.943276    -1.777222
 H     2.921789    -1.659184     0.134099
 H     2.979683    -0.115336    -0.742780
 H     1.856488    -0.672951     2.054626
 H     2.945544     0.661232     1.596113
 H     0.256631     1.122533     1.863868
 H     1.092347     1.837771     0.466059
 H    -5.873437    -1.081092     1.172715
}

set scf_type df
set basis cc-pVDZ
set reference rhf

mol.update_geometry()
mol.symmetrize(1e-3)

e, wfn = optimize('mp2', return_wfn=True)
oeprop(wfn, "MULLIKEN_CHARGES")
mol.print_out()
print_variables()
--------------------------------------------------------------------------

    Molecular point group: c1
  Charge       = 0
  Multiplicity = 1
  Basis Set: CC-PVDZ
    Blend: CC-PVDZ
  Basis Set: (CC-PVDZ AUX)
    Blend: CC-PVDZ-JKFIT
  @DF-RHF Final Energy:  -537.43614312944544
    Total Energy =                       -537.4361431294454405
  Basis Set: (CC-PVDZ AUX)
    Blend: CC-PVDZ-RI
    Molecular point group: c1
  Basis Set: CC-PVDZ
    Blend: CC-PVDZ
  Basis Set: (CC-PVDZ AUX)
    Blend: CC-PVDZ-JKFIT
  Basis Set: (CC-PVDZ AUX)
    Blend: CC-PVDZ-JKFIT
	 Reference Energy          =    -537.4361431294454405 [Eh]
	 Singles Energy            =      -0.0000000000000000 [Eh]
	 Same-Spin Energy          =      -0.4829108895697001 [Eh]
	 Opposite-Spin Energy      =      -1.3531459832557966 [Eh]
	 Correlation Energy        =      -1.8360568728254967 [Eh]
	 Total Energy              =    -539.2722000022708926 [Eh]
	 SCS Total Energy          =    -539.2208886058756434 [Eh]
  @DF-RHF Final Energy:  -537.43664240150702
    Total Energy =                       -537.4366424015070152
  @DF-RHF Final Energy:  -537.43663164877989
    Total Energy =                       -537.4366316487798940
  @DF-RHF Final Energy:  -537.43667964649001
    Total Energy =                       -537.4366796464900062
  @DF-RHF Final Energy:  -537.43670787345377
    Total Energy =                       -537.4367078734537699
  Multiplicity = 1
  Basis Set: CC-PVDZ
    Blend: CC-PVDZ
  Basis Set: (CC-PVDZ AUX)
    Blend: CC-PVDZ-JKFIT

    Orbital Energies [Eh]
    ---------------------

    Doubly Occupied:

       1A    -20.589584     2A    -11.304922     3A    -11.245031
       4A    -11.243916     5A    -11.239719     6A    -11.236521
       7A    -11.235813     8A    -11.234263     9A    -11.230967
      10A    -11.229644    11A    -11.226730    12A    -11.225915
      13A    -11.225161    14A     -1.401929    15A     -1.180267
      16A     -1.133844    17A     -1.033760    18A     -1.012925
      19A     -1.004902    20A     -0.949296    21A     -0.843508
      22A     -0.842313    23A     -0.810996    24A     -0.771745
      25A     -0.739185    26A     -0.724079    27A     -0.686681
      28A     -0.653586    29A     -0.629004    30A     -0.615615
      31A     -0.594021    32A     -0.584093    33A     -0.581701
      34A     -0.570445    35A     -0.563018    36A     -0.559335
      37A     -0.540474    38A     -0.488526    39A     -0.487490
      40A     -0.481251    41A     -0.469819    42A     -0.466846
      43A     -0.456719    44A     -0.404886    45A     -0.383208
      46A     -0.337111    47A     -0.298586

  @DF-RHF Final Energy:  -537.43671621385818

   => Energetics <=

    Nuclear Repulsion Energy =            759.9813000754696759
    One-Electron Energy =               -2237.2973317925534502
    Two-Electron Energy =                 939.8793155032254845
    Total Energy =                       -537.4367162138581762

  Dipole Moment: [D]
     X:    -0.1618      Y:     0.8487      Z:    -0.9063     Total:     1.2521

  Basis Set: (CC-PVDZ AUX)
    Blend: CC-PVDZ-RI
    Molecular point group: c1
  Basis Set: CC-PVDZ
    Blend: CC-PVDZ
  Basis Set: (CC-PVDZ AUX)
    Blend: CC-PVDZ-JKFIT
  Basis Set: (CC-PVDZ AUX)
    Blend: CC-PVDZ-JKFIT
	 Reference Energy          =    -537.4367162138581762 [Eh]
	 Singles Energy            =      -0.0000000000000000 [Eh]
	 Same-Spin Energy          =      -0.4831878820481829 [Eh]
	 Opposite-Spin Energy      =      -1.3536918673297818 [Eh]
	 Correlation Energy        =      -1.8368797493779647 [Eh]
	 Total Energy              =    -539.2735959632361755 [Eh]

	 ================> DF-SCS-MP2 Energies <==================
	-----------------------------------------------------------
	 SCS Same-Spin Scale       =       0.3333333333333333 [-]
	 SCS Opposite-Spin Scale   =       1.2000000000000000 [-]
	 SCS Same-Spin Energy      =      -0.1610626273493943 [Eh]
	 SCS Opposite-Spin Energy  =      -1.6244302407957381 [Eh]
	 SCS Correlation Energy    =      -1.7854928681451323 [Eh]
	 SCS Total Energy          =    -539.2222090820033600 [Eh]
	-----------------------------------------------------------

  -Total Gradient:
     Atom            X                  Y                   Z
    ------   -----------------  -----------------  -----------------
       1       -0.000000670326    -0.000005562157     0.000014499024
       2       -0.000022386819     0.000002854149     0.000022411940
       3        0.000016098451    -0.000013024543     0.000000453894
       4       -0.000001300785     0.000006731503     0.000002437424
       5       -0.000004997474    -0.000007598930     0.000004662226
       6        0.000025605560    -0.000003448152    -0.000035299714
       7       -0.000041575205     0.000078823970    -0.000073188467
       8       -0.000041140002    -0.000042077035     0.000065172180
       9        0.000097547724     0.000004997197    -0.000014320429
      10       -0.000047601907     0.000031683939    -0.000007281095
      11       -0.000076389356    -0.000036472771     0.000035785346
      12        0.000093964675    -0.000036074989    -0.000000042044
      13       -0.000009384512     0.000003170116     0.000003941435
      14        0.000017450659     0.000008031832    -0.000009300497
      15       -0.000027930587     0.000039049051    -0.000053119932
      16       -0.000028597892    -0.000000372232     0.000002165967
      17       -0.000003023724     0.000004462206    -0.000002487626
      18       -0.000004443408     0.000001777535    -0.000003519298
      19        0.000001058997     0.000005548804    -0.000000745377
      20        0.000000718027    -0.000002520818     0.000000285340
      21        0.000001158902     0.000000152152     0.000000542668
      22       -0.000002635502    -0.000000938485     0.000000656842
      23        0.000001048703    -0.000000237740     0.000000585484
      24       -0.000001094944     0.000001262487     0.000000786354
      25       -0.000001180249     0.000001045487    -0.000001271891
      26       -0.000000659453     0.000002775732    -0.000000239787
      27        0.000060360432    -0.000044038309     0.000046430029

  **** Optimization is complete! (in 6 steps) ****
    Final optimized geometry and variables:
    Molecular point group: c1

  Mulliken Charges: (a.u.)
   Center  Symbol    Alpha    Beta     Spin     Total
       1     C     2.97243  2.97243  0.00000  0.05514
       2     C     3.12302  3.12302  0.00000 -0.24603
       3     C     2.97960  2.97960  0.00000  0.04081
       4     C     3.02886  3.02886  0.00000 -0.05772
       5     C     3.00005  3.00005  0.00000 -0.00010
       6     C     3.05358  3.05358  0.00000 -0.10715
       7     C     3.03047  3.03047  0.00000 -0.06093
       8     C     2.98958  2.98958  0.00000  0.02084
       9     C     2.99694  2.99694  0.00000  0.00612
      10     C     2.96630  2.96630  0.00000  0.06741
      11     C     3.02204  3.02204  0.00000 -0.04407
      12     C     2.99443  2.99443  0.00000  0.01114
      13     H     0.49625  0.49625  0.00000  0.00751
      14     H     0.49283  0.49283  0.00000  0.01434
      15     O     4.10798  4.10798  0.00000 -0.21595
      16     H     0.48782  0.48782  0.00000  0.02436
      17     H     0.49721  0.49721  0.00000  0.00558
      18     H     0.48842  0.48842  0.00000  0.02317
      19     H     0.47825  0.47825  0.00000  0.04349
      20     H     0.48237  0.48237  0.00000  0.03526
      21     H     0.48004  0.48004  0.00000  0.03992
      22     H     0.48189  0.48189  0.00000  0.03622
      23     H     0.48058  0.48058  0.00000  0.03885
      24     H     0.48547  0.48547  0.00000  0.02907
      25     H     0.48033  0.48033  0.00000  0.03934
      26     H     0.48291  0.48291  0.00000  0.03419
      27     H     0.42039  0.42039  0.00000  0.15922

   Total alpha = 47.00000, Total beta = 47.00000, Total charge = -0.00000

    Molecular point group: c1

    Geometry (in Angstrom), charge = 0, multiplicity = 1:

       Center              X                  Y                   Z               Mass
    ------------   -----------------  -----------------  -----------------  -----------------
         C            1.500085399014     0.650766655705    -2.011041407054    12.000000000000
         C            1.146184092814     0.538717088651    -0.542823358465    12.000000000000
         C            1.974729020334     1.422333637354     0.408969382953    12.000000000000
         C            3.238266967675     0.592446784866     0.710074126300    12.000000000000
         C            3.518050205767    -0.180254633456    -0.595314709197    12.000000000000
         C            2.130433566916    -0.448026902252    -1.177849162304    12.000000000000
         C           -0.227487671233     0.124988442446    -0.132159409116    12.000000000000
         C           -0.408369017356    -0.809679680991     0.910155365665    12.000000000000
         C           -1.686970693857    -1.179527620582     1.342287795367    12.000000000000
         C           -2.823645810176    -0.617422386258     0.733943926060    12.000000000000
         C           -2.661548875793     0.314156818244    -0.305077499864    12.000000000000
         C           -1.373941230125     0.680711764554    -0.727992615499    12.000000000000
         H           -1.258896602667     1.412878116353    -1.533622993172     1.007825032230
         H           -3.542546580433     0.756496256875    -0.785032641371     1.007825032230
         O           -4.048217657446    -1.020893709124     1.194347109819    15.994914619570
         H           -1.828915285983    -1.908083122563     2.145215624133     1.007825032230
         H            0.470954490191    -1.261751904438     1.381809532243     1.007825032230
         H            1.807525787693    -1.475182562140    -1.371734997498     1.007825032230
         H            0.737542939184     0.351615059497    -2.735724941311     1.007825032230
         H            2.140655765110     1.483257007560    -2.321348140201     1.007825032230
         H            4.071731256843    -1.115157585847    -0.413758442869     1.007825032230
         H            4.124497403204     0.430046053936    -1.288536283216     1.007825032230
         H            3.002349239496    -0.133719223918     1.508273789569     1.007825032230
         H            4.092239120726     1.201139217519     1.052675123053     1.007825032230
         H            1.403474269931     1.663162248036     1.319293093505     1.007825032230
         H            2.239195033589     2.377950341625    -0.079179842143     1.007825032230
         H           -4.718047172412    -0.549362387780     0.679234002581     1.007825032230

*** Psi4 exiting successfully. Buy a developer a beer!
