                               Psi4 1.4 release

  ==> Input File <==

--------------------------------------------------------------------------
memory 62 GB

molecule mol {
0 1
    C            3.925032925852     0.814515100899     0.441512512978
    C            2.465104029492     1.312406302065     0.522395484756
    C            1.677251551997     0.164974335646    -0.104432268218
    C            2.493255818261    -0.633670171723    -0.838152651633
    C            3.934304482702    -0.149284983546    -0.764971647237
    C            0.205012398001     0.051923300011     0.058312977378
    C           -0.427457675220    -1.194624665919     0.281366887584
    C           -1.810692386067    -1.287269762279     0.444207861434
    C           -2.614307116932    -0.129755194347     0.397499660677
    C           -2.006023666804     1.120073061307     0.197814323285
    C           -0.610003614040     1.197148692659     0.038278730784
    C            2.127349129046    -1.793952051039    -1.725842051327
    H           -0.155427102668     2.181369084267    -0.115835369013
    H           -2.593697076134     2.039880076807     0.166366698239
    O           -3.955723647595    -0.334407039179     0.566510125662
    H           -2.298366780512    -2.250094981609     0.622352766084
    H            0.180346124821    -2.101830539078     0.351964066437
    H            4.159349119164     0.244836838380     1.358747610426
    H            4.661174973746     1.631232830530     0.355279950026
    H            4.656946384136    -0.978007779963    -0.649075656410
    H            4.200174891699     0.374429221712    -1.706522238997
    H            1.041327767594    -1.864589437673    -1.892785361362
    H            2.623266810190    -1.685521075287    -2.708377519190
    H            2.476599463377    -2.752059648911    -1.296272206750
    H            2.142188728640     1.536839031650     1.554253360971
    H            2.325645869095     2.240207004459    -0.068753958365
    C           -4.787434680498     0.812080942118     0.509617185911
    H           -5.810557395454     0.452690470424     0.687537763167
    H           -4.519253031380     1.548831603492     1.289425678240
    H           -4.740285676780     1.300804102124    -0.481051929290
}

set scf_type df
set basis cc-pVDZ
set reference rhf

mol.update_geometry()
mol.symmetrize(1e-3)

e, wfn = optimize('CCSD', return_wfn=True)
oeprop(wfn, "MULLIKEN_CHARGES")
mol.print_out()
print_variables()
--------------------------------------------------------------------------

    Molecular point group: c1
  Charge       = 0
  Multiplicity = 1
  Basis Set: CC-PVDZ
    Blend: CC-PVDZ
  Basis Set: (CC-PVDZ AUX)
    Blend: CC-PVDZ-JKFIT
  @DF-RHF Final Energy:  -576.48419400603370
    Total Energy =                       -576.4841940060337038
      * MP2 total energy                      = -578.459623339637233
      * CCSD total energy                     = -578.559610621714342
    Molecular point group: c1
  Basis Set: CC-PVDZ
    Blend: CC-PVDZ
  Basis Set: (CC-PVDZ AUX)
    Blend: CC-PVDZ-JKFIT
  @DF-RHF Final Energy:  -576.48306477126823
    Total Energy =                       -576.4830647712681184
      * MP2 total energy                      = -578.459076401432981
      * CCSD total energy                     = -578.559153492930704
  Basis Set: CC-PVDZ
    Blend: CC-PVDZ
  Basis Set: (CC-PVDZ AUX)
    Blend: CC-PVDZ-JKFIT
  @DF-RHF Final Energy:  -576.48407138450659
    Total Energy =                       -576.4840713845067057
      * MP2 total energy                      = -578.459595997494716
      * CCSD total energy                     = -578.559613895415055
    Blend: CC-PVDZ
  Basis Set: (CC-PVDZ AUX)
    Blend: CC-PVDZ-JKFIT
  @DF-RHF Final Energy:  -576.48424898550024
    Total Energy =                       -576.4842489855002441
      * MP2 total energy                      = -578.459639443236028
      * CCSD total energy                     = -578.559631036105202
  Basis Set: CC-PVDZ
    Blend: CC-PVDZ
  Basis Set: (CC-PVDZ AUX)
    Blend: CC-PVDZ-JKFIT
  @DF-RHF Final Energy:  -576.48416235507909
    Total Energy =                       -576.4841623550792065
      * MP2 total energy                      = -578.459623866925085
      * CCSD total energy                     = -578.559631565591644
  Multiplicity = 1
  Basis Set: CC-PVDZ
    Blend: CC-PVDZ
  Basis Set: (CC-PVDZ AUX)
    Blend: CC-PVDZ-JKFIT

    Orbital Energies [Eh]
    ---------------------

    Doubly Occupied:

       1A    -20.584669     2A    -11.302390     3A    -11.293397
       4A    -11.243918     5A    -11.242460     6A    -11.238334
       7A    -11.237346     8A    -11.232545     9A    -11.231256
      10A    -11.228429    11A    -11.227947    12A    -11.227295
      13A    -11.227148    14A    -11.224922    15A     -1.408519
      16A     -1.153299    17A     -1.123690    18A     -1.027687
      19A     -1.014189    20A     -1.001132    21A     -0.958570
      22A     -0.922736    23A     -0.895818    24A     -0.830450
      25A     -0.805023    26A     -0.778051    27A     -0.718428
      28A     -0.693630    29A     -0.659155    30A     -0.649121
      31A     -0.639458    32A     -0.633452    33A     -0.618059
      34A     -0.586725    35A     -0.579182    36A     -0.568636
      37A     -0.562419    38A     -0.556598    39A     -0.537862
      40A     -0.519492    41A     -0.518434    42A     -0.500306
      43A     -0.482159    44A     -0.479634    45A     -0.474549
      46A     -0.470196    47A     -0.458630    48A     -0.452634
      49A     -0.348222    50A     -0.334416    51A     -0.279209

  @DF-RHF Final Energy:  -576.48420135461436

   => Energetics <=

    Nuclear Repulsion Energy =            841.0459927194883676
    One-Electron Energy =               -2451.0967360654944969
    Two-Electron Energy =                1033.5665419913918868
    Total Energy =                       -576.4842013546142425

  Dipole Moment: [D]
     X:    -0.2876      Y:     1.1897      Z:    -0.2787     Total:     1.2553

      * MP2 total energy                      = -578.459632768520351
      * CCSD total energy                     = -578.559633571853851
    Molecular point group: c1

  -Total gradient:
     Atom            X                  Y                   Z
    ------   -----------------  -----------------  -----------------
       1       -0.000000610126     0.000002932715    -0.000004430610
       2        0.000003517019     0.000000010266     0.000001983388
       3       -0.000020623868    -0.000000639826     0.000004342788
       4        0.000004483601    -0.000003671688     0.000007805969
       5       -0.000001433487     0.000005909378    -0.000001937869
       6        0.000020530811    -0.000000935628    -0.000000820788
       7        0.000001871670    -0.000006708411    -0.000018099913
       8        0.000004075387    -0.000003091044    -0.000005894758
       9       -0.000015752036     0.000014489407     0.000018509134
      10       -0.000007433033    -0.000009329213     0.000002493730
      11       -0.000003564529     0.000000921184     0.000001236965
      12        0.000000644821     0.000002749124     0.000000437436
      13       -0.000001830364     0.000000539111     0.000000601971
      14       -0.000008645258     0.000005690288     0.000000026498
      15        0.000012326303    -0.000018179555     0.000003193131
      16       -0.000000757764    -0.000000163808    -0.000000279644
      17       -0.000004957044     0.000000233950     0.000003499752
      18       -0.000001288335    -0.000001293315     0.000000296831
      19        0.000000817381     0.000000245531     0.000001005375
      20       -0.000001476959    -0.000000551018    -0.000000933217
      21        0.000000570723     0.000001209208    -0.000000733884
      22       -0.000001773798     0.000000286998    -0.000002143255
      23        0.000001446358    -0.000001932772     0.000003403407
      24       -0.000005594463    -0.000003003793     0.000001167302
      25        0.000001430773     0.000000840335     0.000000451641
      26        0.000001307325    -0.000000930523    -0.000001662912
      27        0.000028210813     0.000004944998    -0.000020147293
      28       -0.000018513966    -0.000016111515     0.000008684383
      29        0.000008422388     0.000014086574     0.000021673825
      30        0.000004599654     0.000011453049    -0.000023729376

  **** Optimization is complete! (in 6 steps) ****
    Final optimized geometry and variables:
    Molecular point group: c1

  Mulliken Charges: (a.u.)
   Center  Symbol    Alpha    Beta     Spin     Total
       1     C     3.02102  3.02102  0.00000 -0.04204
       2     C     2.99137  2.99137  0.00000  0.01726
       3     C     3.03270  3.03270  0.00000 -0.06541
       4     C     3.11329  3.11329  0.00000 -0.22657
       5     C     2.99277  2.99277  0.00000  0.01446
       6     C     3.05104  3.05104  0.00000 -0.10207
       7     C     2.99427  2.99427  0.00000  0.01147
       8     C     3.00115  3.00115  0.00000 -0.00230
       9     C     2.92408  2.92408  0.00000  0.15184
      10     C     3.03340  3.03340  0.00000 -0.06681
      11     C     2.99640  2.99640  0.00000  0.00720
      12     C     2.98874  2.98874  0.00000  0.02252
      13     H     0.49758  0.49758  0.00000  0.00484
      14     H     0.49209  0.49209  0.00000  0.01583
      15     O     4.17022  4.17022  0.00000 -0.34044
      16     H     0.48996  0.48996  0.00000  0.02008
      17     H     0.49515  0.49515  0.00000  0.00969
      18     H     0.48241  0.48241  0.00000  0.03519
      19     H     0.48825  0.48825  0.00000  0.02351
      20     H     0.48563  0.48563  0.00000  0.02873
      21     H     0.48097  0.48097  0.00000  0.03806
      22     H     0.47553  0.47553  0.00000  0.04894
      23     H     0.47985  0.47985  0.00000  0.04030
      24     H     0.47708  0.47708  0.00000  0.04585
      25     H     0.48273  0.48273  0.00000  0.03455
      26     H     0.47967  0.47967  0.00000  0.04066
      27     C     2.94741  2.94741  0.00000  0.10517
      28     H     0.47178  0.47178  0.00000  0.05645
      29     H     0.48174  0.48174  0.00000  0.03652
      30     H     0.48174  0.48174  0.00000  0.03652

   Total alpha = 51.00000, Total beta = 51.00000, Total charge =  0.00000

    Molecular point group: c1

    Geometry (in Angstrom), charge = 0, multiplicity = 1:

       Center              X                  Y                   Z               Mass
    ------------   -----------------  -----------------  -----------------  -----------------
         C            3.924584717271     0.814536739412     0.444547465587    12.000000000000
         C            2.464572842857     1.312919664483     0.523073357491    12.000000000000
         C            1.677428384058     0.165327223068    -0.104261682620    12.000000000000
         C            2.494197629939    -0.633983036324    -0.836376035533    12.000000000000
         C            3.935346769466    -0.150262646623    -0.761252805732    12.000000000000
         C            0.204925151268     0.052287284200     0.056855592994    12.000000000000
         C           -0.427066722425    -1.193740288043     0.283939025085    12.000000000000
         C           -1.810608290993    -1.286651315593     0.444566854375    12.000000000000
         C           -2.614754110493    -0.129760679542     0.392646902357    12.000000000000
         C           -2.007027823936     1.119533343039     0.188122991259    12.000000000000
         C           -0.610784675122     1.196879889323     0.030538279174    12.000000000000
         C            2.129025935634    -1.794763301862    -1.723682531809    12.000000000000
         H           -0.156619159268     2.180662310856    -0.127660675938     1.007825032230
         H           -2.595296067982     2.038741172454     0.150376846964     1.007825032230
         O           -3.956202906209    -0.334798384034     0.561349303206    15.994914619570
         H           -2.297887244344    -2.249124415254     0.625610774275     1.007825032230
         H            0.181314318800    -2.100237485310     0.358882809490     1.007825032230
         H            4.157641634281     0.245552550529     1.362545749075     1.007825032230
         H            4.661086030658     1.631046995115     0.358584776313     1.007825032230
         H            4.657372470450    -0.979305844742    -0.643344198956     1.007825032230
         H            4.203175374993     0.372405152874    -1.702784289717     1.007825032230
         H            1.042794795052    -1.867971078014    -1.888099027606     1.007825032230
         H            2.622412283104    -1.684716484381    -2.707344464378     1.007825032230
         H            2.481747409226    -2.752123400945    -1.295240957153     1.007825032230
         H            2.140092836756     1.537726316159     1.554429518024     1.007825032230
         H            2.326135940184     2.240587732147    -0.068533079443     1.007825032230
         C           -4.787897495384     0.812661923375     0.521353377407    12.000000000000
         H           -5.814734313263     0.449272263430     0.672548964178     1.007825032230
         H           -4.533901057347     1.529139037068     1.324937614906     1.007825032230
         H           -4.724858047730     1.328573311425    -0.455086558307     1.007825032230

*** Psi4 exiting successfully. Buy a developer a beer!
