                               Psi4 1.4 release

  ==> Input File <==

--------------------------------------------------------------------------
molecule mol {
0 1
C    0.00000000  0.00000000  0.00000000
C   -0.60596800 -1.22643900 -0.66495400
C   -2.02709400 -1.58300900 -0.50745700
C   -2.43823800 -2.92802500 -0.36687600
C   -3.79420800 -3.25362700 -0.21147700
C   -4.76604600 -2.24026400 -0.18223100
C   -4.36957100 -0.89748300 -0.29927000
C   -3.01413900 -0.57254200 -0.45292200
H   -2.71536900  0.47628700 -0.54544000
H   -5.11880500 -0.10042600 -0.26858100
H   -5.82299500 -2.49372900 -0.05807200
H   -4.09109700 -4.30103800 -0.09961600
H   -1.68164800 -3.71784500 -0.34781900
C    0.31906000 -1.84881900 -1.45135500
C    1.65382000 -1.13497300 -1.36532200
C    1.51129000 -0.28096600 -0.09259300
H    1.81230500 -0.88683600  0.77854100
H    2.12735300  0.63188600 -0.10372600
H    2.50985700 -1.83129300 -1.32897500
H    1.79496400 -0.50247100 -2.26494400
C    0.12013800 -2.99314900 -2.39942300
H   -0.94431100 -3.22404400 -2.55201200
H    0.56881600 -2.74955600 -3.37850200
H    0.62560000 -3.90646200 -2.03728700
H   -0.35400200  0.14438000  1.03432400
H   -0.26785300  0.91306400 -0.56714000
}

set scf_type df
set basis cc-pVTZ
set reference rhf

mol.update_geometry()
mol.symmetrize(1e-3)

e, wfn = optimize('mp2', return_wfn=True)
oeprop(wfn, "MULLIKEN_CHARGES")
mol.print_out()
print_variables()
--------------------------------------------------------------------------

    Molecular point group: c1
  Charge       = 0
  Multiplicity = 1
  Basis Set: CC-PVTZ
    Blend: CC-PVTZ
  Basis Set: (CC-PVTZ AUX)
    Blend: CC-PVTZ-JKFIT
  @DF-RHF Final Energy:  -462.70856656017139
    Total Energy =                       -462.7085665601714481
  Basis Set: (CC-PVTZ AUX)
    Blend: CC-PVTZ-RI
    Molecular point group: c1
  Basis Set: CC-PVTZ
    Blend: CC-PVTZ
  Basis Set: (CC-PVTZ AUX)
    Blend: CC-PVTZ-JKFIT
  Basis Set: (CC-PVTZ AUX)
    Blend: CC-PVTZ-JKFIT
	 Reference Energy          =    -462.7085665601713913 [Eh]
	 Singles Energy            =      -0.0000000000000000 [Eh]
	 Same-Spin Energy          =      -0.5104800206126551 [Eh]
	 Opposite-Spin Energy      =      -1.6316131998655230 [Eh]
	 Correlation Energy        =      -2.1420932204781780 [Eh]
	 Total Energy              =    -464.8506597806495506 [Eh]
	 SCS Total Energy          =    -464.8366624068809188 [Eh]
  @DF-RHF Final Energy:  -462.71538765483410
    Total Energy =                       -462.7153876548341032
  @DF-RHF Final Energy:  -462.71528910551302
    Total Energy =                       -462.7152891055130794
  @DF-RHF Final Energy:  -462.71526117379153
    Total Energy =                       -462.7152611737915322
  @DF-RHF Final Energy:  -462.71517056581200
    Total Energy =                       -462.7151705658120591
  @DF-RHF Final Energy:  -462.71514954928045
    Total Energy =                       -462.7151495492804543
  Multiplicity = 1
  Basis Set: CC-PVTZ
    Blend: CC-PVTZ
  Basis Set: (CC-PVTZ AUX)
    Blend: CC-PVTZ-JKFIT

    Orbital Energies [Eh]
    ---------------------

    Doubly Occupied:

       1A    -11.234212     2A    -11.227878     3A    -11.227589
       4A    -11.225182     5A    -11.224510     6A    -11.224437
       7A    -11.224298     8A    -11.217327     9A    -11.215909
      10A    -11.215244    11A    -11.214841    12A    -11.213218
      13A     -1.165453    14A     -1.134546    15A     -1.034185
      16A     -1.018512    17A     -1.007127    18A     -0.947229
      19A     -0.904905    20A     -0.828325    21A     -0.823016
      22A     -0.782525    23A     -0.722875    24A     -0.670243
      25A     -0.646566    26A     -0.644631    27A     -0.623958
      28A     -0.613860    29A     -0.585103    30A     -0.572008
      31A     -0.570306    32A     -0.546250    33A     -0.536271
      34A     -0.509501    35A     -0.503124    36A     -0.489994
      37A     -0.479318    38A     -0.478437    39A     -0.468219
      40A     -0.462101    41A     -0.367457    42A     -0.333705
      43A     -0.289931

  @DF-RHF Final Energy:  -462.71515090356604

   => Energetics <=

    Nuclear Repulsion Energy =            658.9814392436444450
    One-Electron Energy =               -1932.5445270372629238
    Two-Electron Energy =                 810.8479368900524378
    Total Energy =                       -462.7151509035660411

  Dipole Moment: [D]
     X:     0.4095      Y:    -0.0387      Z:    -0.2494     Total:     0.4811

  Basis Set: (CC-PVTZ AUX)
    Blend: CC-PVTZ-RI
    Molecular point group: c1
  Basis Set: CC-PVTZ
    Blend: CC-PVTZ
  Basis Set: (CC-PVTZ AUX)
    Blend: CC-PVTZ-JKFIT
  Basis Set: (CC-PVTZ AUX)
    Blend: CC-PVTZ-JKFIT
	 Reference Energy          =    -462.7151509035660411 [Eh]
	 Singles Energy            =      -0.0000000000000000 [Eh]
	 Same-Spin Energy          =      -0.5111166380577494 [Eh]
	 Opposite-Spin Energy      =      -1.6297054544072707 [Eh]
	 Correlation Energy        =      -2.1408220924650201 [Eh]
	 Total Energy              =    -464.8559729960310847 [Eh]

	 ================> DF-SCS-MP2 Energies <==================
	-----------------------------------------------------------
	 SCS Same-Spin Scale       =       0.3333333333333333 [-]
	 SCS Opposite-Spin Scale   =       1.2000000000000000 [-]
	 SCS Same-Spin Energy      =      -0.1703722126859165 [Eh]
	 SCS Opposite-Spin Energy  =      -1.9556465452887246 [Eh]
	 SCS Correlation Energy    =      -2.1260187579746410 [Eh]
	 SCS Total Energy          =    -464.8411696615406754 [Eh]
	-----------------------------------------------------------

  -Total Gradient:
     Atom            X                  Y                   Z
    ------   -----------------  -----------------  -----------------
       1        0.000026513362    -0.000022455639    -0.000005909135
       2       -0.000033371774     0.000025524995     0.000027706944
       3       -0.000004402441     0.000026902909    -0.000046283296
       4       -0.000032131140    -0.000017217429     0.000018645016
       5        0.000027575654     0.000019684223    -0.000001361788
       6       -0.000011278673     0.000013152091    -0.000009310332
       7        0.000011579289    -0.000018729347    -0.000013334111
       8       -0.000008773207    -0.000024744943     0.000029382817
       9        0.000000564136    -0.000001783986    -0.000005963830
      10       -0.000000788061    -0.000000608988     0.000003575662
      11        0.000004883364     0.000002342140     0.000006484488
      12       -0.000000415182     0.000000550561     0.000001851523
      13       -0.000000463880     0.000000180428     0.000000659183
      14       -0.000005778828    -0.000036416865     0.000004949908
      15       -0.000041767197     0.000033905355    -0.000033570451
      16       -0.000003841082    -0.000006372609     0.000004658963
      17       -0.000005305283     0.000009733146    -0.000010411598
      18        0.000011815278     0.000016961192    -0.000001571432
      19        0.000005637287    -0.000021976007     0.000004509784
      20        0.000018207838     0.000000811186     0.000011952635
      21        0.000018944289    -0.000012066386     0.000025320524
      22       -0.000000425730     0.000003563058    -0.000002415268
      23        0.000011693975     0.000004703995    -0.000003269664
      24        0.000003278566     0.000008254716    -0.000018066655
      25        0.000002654997    -0.000000406264     0.000011542278
      26        0.000005394431    -0.000003491523     0.000000227836

  **** Optimization is complete! (in 7 steps) ****
    Final optimized geometry and variables:
    Molecular point group: c1

  Mulliken Charges: (a.u.)
   Center  Symbol    Alpha    Beta     Spin     Total
       1     C     3.13548  3.13548  0.00000 -0.27096
       2     C     3.05148  3.05148  0.00000 -0.10295
       3     C     2.90379  2.90379  0.00000  0.19242
       4     C     3.08952  3.08952  0.00000 -0.17905
       5     C     3.07678  3.07678  0.00000 -0.15357
       6     C     3.08713  3.08713  0.00000 -0.17426
       7     C     3.07099  3.07099  0.00000 -0.14197
       8     C     3.09491  3.09491  0.00000 -0.18982
       9     H     0.42661  0.42661  0.00000  0.14677
      10     H     0.42462  0.42462  0.00000  0.15076
      11     H     0.42414  0.42414  0.00000  0.15173
      12     H     0.42409  0.42409  0.00000  0.15183
      13     H     0.41966  0.41966  0.00000  0.16068
      14     C     2.99057  2.99057  0.00000  0.01886
      15     C     3.12871  3.12871  0.00000 -0.25741
      16     C     3.12671  3.12671  0.00000 -0.25343
      17     H     0.43992  0.43992  0.00000  0.12016
      18     H     0.43516  0.43516  0.00000  0.12967
      19     H     0.43664  0.43664  0.00000  0.12673
      20     H     0.43965  0.43965  0.00000  0.12070
      21     C     3.20379  3.20379  0.00000 -0.40759
      22     H     0.43095  0.43095  0.00000  0.13810
      23     H     0.43518  0.43518  0.00000  0.12964
      24     H     0.43283  0.43283  0.00000  0.13434
      25     H     0.43234  0.43234  0.00000  0.13532
      26     H     0.43835  0.43835  0.00000  0.12330

   Total alpha = 43.00000, Total beta = 43.00000, Total charge = -0.00000

    Molecular point group: c1

    Geometry (in Angstrom), charge = 0, multiplicity = 1:

       Center              X                  Y                   Z               Mass
    ------------   -----------------  -----------------  -----------------  -----------------
         C            1.381536665141     1.545636799412     0.675337602982    12.000000000000
         C            0.781434318311     0.330372279299     0.017330823699    12.000000000000
         C           -0.622972222964    -0.006391713386     0.172596005583    12.000000000000
         C           -1.062157867356    -1.331154258423     0.216890699765    12.000000000000
         C           -2.406432027152    -1.634326962333     0.365235176484    12.000000000000
         C           -3.343296433371    -0.616512666858     0.481496901251    12.000000000000
         C           -2.920383793260     0.705832423336     0.461917041547    12.000000000000
         C           -1.575183985345     1.004827908656     0.317628487878    12.000000000000
         H           -1.258039042785     2.034449769542     0.304413845423     1.007825032230
         H           -3.637488545959     1.503115570307     0.562317312653     1.007825032230
         H           -4.387351976843    -0.850514428363     0.598519887252     1.007825032230
         H           -2.720722752988    -2.663789355841     0.402760626058     1.007825032230
         H           -0.337680908565    -2.125956126597     0.167965559470     1.007825032230
         C            1.695627174457    -0.289868559819    -0.752105089907    12.000000000000
         C            3.023596179470     0.403405124851    -0.664674684596    12.000000000000
         C            2.881573568248     1.270312788922     0.584745273868    12.000000000000
         H            3.180913026805     0.687002710840     1.451207004761     1.007825032230
         H            3.485504505024     2.170887636764     0.558348750891     1.007825032230
         H            3.857529805965    -0.292630096445    -0.609684151955     1.007825032230
         H            3.176965024362     1.011512352159    -1.559271697585     1.007825032230
         C            1.501971628521    -1.420384466719    -1.695213838809    12.000000000000
         H            0.453682325431    -1.615695493007    -1.893206092438     1.007825032230
         H            1.996326496307    -1.198735066953    -2.639220750653     1.007825032230
         H            1.953527111870    -2.335580121838    -1.313956980319     1.007825032230
         H            1.035772786253     1.686365596803     1.695506491070     1.007825032230
         H            1.115373943815     2.445018765033     0.116968587790     1.007825032230

*** Psi4 exiting successfully. Buy a developer a beer!
