                               Psi4 1.4 release

  ==> Input File <==

--------------------------------------------------------------------------
molecule mol {
0 1
 C     1.511290    -0.280966    -0.092593
 C    -0.000000     0.000000     0.000000
 C    -0.605968    -1.226439    -0.664954
 C     0.319060    -1.848819    -1.451355
 C     1.653820    -1.134973    -1.365322
 C    -2.027094    -1.583009    -0.507457
 C    -2.438238    -2.928025    -0.366876
 C    -3.794208    -3.253627    -0.211477
 C    -4.766046    -2.240264    -0.182231
 C    -4.369571    -0.897483    -0.299270
 C    -3.014139    -0.572542    -0.452922
 C     0.120138    -2.993149    -2.399423
 H    -2.715369     0.476287    -0.545440
 H    -5.118805    -0.100426    -0.268581
Cl    -6.447141    -2.643405     0.015246
 H    -4.091097    -4.301038    -0.099616
 H    -1.681648    -3.717845    -0.347819
 H     1.812305    -0.886836     0.778541
 H     2.127353     0.631886    -0.103726
 H     2.509857    -1.831293    -1.328975
 H     1.794964    -0.502471    -2.264944
 H    -0.944311    -3.224044    -2.552012
 H     0.568816    -2.749556    -3.378502
 H     0.625600    -3.906462    -2.037287
 H    -0.354002     0.144380     1.034324
 H    -0.267853     0.913064    -0.567140
}

set scf_type df
set basis cc-pVTZ
set reference rhf

mol.update_geometry()
mol.symmetrize(1e-3)

e, wfn = optimize('mp2', return_wfn=True)
oeprop(wfn, "MULLIKEN_CHARGES")
mol.print_out()
print_variables()
--------------------------------------------------------------------------

    Molecular point group: c1
  Charge       = 0
  Multiplicity = 1
  Basis Set: CC-PVTZ
    Blend: CC-PVTZ
  Basis Set: (CC-PVTZ AUX)
    Blend: CC-PVTZ-JKFIT
  @DF-RHF Final Energy:  -921.64356906887906
    Total Energy =                       -921.6435690688790601
  Basis Set: (CC-PVTZ AUX)
    Blend: CC-PVTZ-RI
    Molecular point group: c1
  Basis Set: CC-PVTZ
    Blend: CC-PVTZ
  Basis Set: (CC-PVTZ AUX)
    Blend: CC-PVTZ-JKFIT
  Basis Set: (CC-PVTZ AUX)
    Blend: CC-PVTZ-JKFIT
	 Reference Energy          =    -921.6435690688790601 [Eh]
	 Singles Energy            =      -0.0000000000000000 [Eh]
	 Same-Spin Energy          =      -0.5734513597704446 [Eh]
	 Opposite-Spin Energy      =      -1.7862035035589177 [Eh]
	 Correlation Energy        =      -2.3596548633293621 [Eh]
	 Total Energy              =    -924.0032239322084706 [Eh]
	 SCS Total Energy          =    -923.9781637264065921 [Eh]
  @DF-RHF Final Energy:  -921.65083250757993
    Total Energy =                       -921.6508325075799348
  @DF-RHF Final Energy:  -921.65070859743298
    Total Energy =                       -921.6507085974328675
  @DF-RHF Final Energy:  -921.65065147154098
    Total Energy =                       -921.6506514715408684
  @DF-RHF Final Energy:  -921.65056179043984
    Total Energy =                       -921.6505617904397241
  @DF-RHF Final Energy:  -921.65052929256274
    Total Energy =                       -921.6505292925628510
  Multiplicity = 1
  Basis Set: CC-PVTZ
    Blend: CC-PVTZ
  Basis Set: (CC-PVTZ AUX)
    Blend: CC-PVTZ-JKFIT

    Orbital Energies [Eh]
    ---------------------

    Doubly Occupied:

       1A   -104.834352     2A    -11.294940     3A    -11.245075
       4A    -11.242765     5A    -11.242715     6A    -11.239178
       7A    -11.239000     8A    -11.231719     9A    -11.224289
      10A    -11.221239    11A    -11.221178    12A    -11.220954
      13A    -11.218284    14A    -10.559677    15A     -8.026594
      16A     -8.024688    17A     -8.024657    18A     -1.192785
      19A     -1.158178    20A     -1.115449    21A     -1.032286
      22A     -1.023599    23A     -1.015460    24A     -0.945701
      25A     -0.909805    26A     -0.848497    27A     -0.821645
      28A     -0.789898    29A     -0.732586    30A     -0.665184
      31A     -0.652166    32A     -0.649605    33A     -0.646830
      34A     -0.624464    35A     -0.600838    36A     -0.580203
      37A     -0.576407    38A     -0.553356    39A     -0.544092
      40A     -0.541488    41A     -0.523013    42A     -0.504794
      43A     -0.490394    44A     -0.485088    45A     -0.483242
      46A     -0.470273    47A     -0.461536    48A     -0.450046
      49A     -0.368289    50A     -0.349172    51A     -0.293927

  @DF-RHF Final Energy:  -921.65053186285013

   => Energetics <=

    Nuclear Repulsion Energy =            822.8216165359672232
    One-Electron Energy =               -2894.1210993760382735
    Two-Electron Energy =                1149.6489509772209203
    Total Energy =                       -921.6505318628501300

  Dipole Moment: [D]
     X:     2.4974      Y:     0.3962      Z:    -0.5173     Total:     2.5810

  Basis Set: (CC-PVTZ AUX)
    Blend: CC-PVTZ-RI
    Molecular point group: c1
  Basis Set: CC-PVTZ
    Blend: CC-PVTZ
  Basis Set: (CC-PVTZ AUX)
    Blend: CC-PVTZ-JKFIT
  Basis Set: (CC-PVTZ AUX)
    Blend: CC-PVTZ-JKFIT
	 Reference Energy          =    -921.6505318628501300 [Eh]
	 Singles Energy            =      -0.0000000000000000 [Eh]
	 Same-Spin Energy          =      -0.5742485777563651 [Eh]
	 Opposite-Spin Energy      =      -1.7842718290234425 [Eh]
	 Correlation Energy        =      -2.3585204067798076 [Eh]
	 Total Energy              =    -924.0090522696299331 [Eh]

	 ================> DF-SCS-MP2 Energies <==================
	-----------------------------------------------------------
	 SCS Same-Spin Scale       =       0.3333333333333333 [-]
	 SCS Opposite-Spin Scale   =       1.2000000000000000 [-]
	 SCS Same-Spin Energy      =      -0.1914161925854550 [Eh]
	 SCS Opposite-Spin Energy  =      -2.1411261948281308 [Eh]
	 SCS Correlation Energy    =      -2.3325423874135858 [Eh]
	 SCS Total Energy          =    -923.9830742502637122 [Eh]
	-----------------------------------------------------------

  -Total Gradient:
     Atom            X                  Y                   Z
    ------   -----------------  -----------------  -----------------
       1       -0.000000237111    -0.000006825131     0.000009028650
       2        0.000026441538    -0.000018877102     0.000000562220
       3       -0.000031652024     0.000032842905     0.000012200268
       4       -0.000002848907    -0.000055088401     0.000033026979
       5       -0.000040048061     0.000038508670    -0.000051602984
       6       -0.000013170235     0.000019922399    -0.000057546369
       7       -0.000025874824    -0.000053121725     0.000020929839
       8        0.000022111876     0.000032088376    -0.000003955131
       9        0.000007753806     0.000023698500    -0.000014722655
      10        0.000011978191    -0.000035091065    -0.000016536935
      11       -0.000022517143     0.000010851532     0.000041212307
      12        0.000017549686    -0.000007041396     0.000024077985
      13        0.000010705147    -0.000011408544    -0.000004252416
      14       -0.000003126318     0.000001497307     0.000001547780
      15       -0.000012603012    -0.000004759123     0.000012278830
      16       -0.000001500159    -0.000001149631     0.000000835944
      17        0.000001979207     0.000014658014     0.000006975259
      18       -0.000004114278     0.000011412610    -0.000010046018
      19        0.000008327960     0.000012698432    -0.000001195610
      20       -0.000000990070    -0.000022252701     0.000001639131
      21        0.000021630086    -0.000000563079     0.000012432156
      22        0.000005595908     0.000004517723    -0.000006636090
      23        0.000011245381     0.000003016649    -0.000001359800
      24        0.000004673165     0.000013838309    -0.000019845689
      25        0.000004384881     0.000001566123     0.000009832141
      26        0.000004305079    -0.000004939645     0.000001120229

  **** Optimization is complete! (in 7 steps) ****
    Final optimized geometry and variables:
    Molecular point group: c1

  Mulliken Charges: (a.u.)
   Center  Symbol    Alpha    Beta     Spin     Total
       1     C     3.12683  3.12683  0.00000 -0.25366
       2     C     3.13717  3.13717  0.00000 -0.27434
       3     C     3.05220  3.05220  0.00000 -0.10441
       4     C     2.99079  2.99079  0.00000  0.01841
       5     C     3.12891  3.12891  0.00000 -0.25782
       6     C     2.91089  2.91089  0.00000  0.17821
       7     C     3.07558  3.07558  0.00000 -0.15116
       8     C     3.09500  3.09500  0.00000 -0.19000
       9     C     2.95686  2.95686  0.00000  0.08628
      10     C     3.08769  3.08769  0.00000 -0.17539
      11     C     3.08269  3.08269  0.00000 -0.16538
      12     C     3.20457  3.20457  0.00000 -0.40913
      13     H     0.42305  0.42305  0.00000  0.15389
      14     H     0.41810  0.41810  0.00000  0.16379
      15    CL     8.56124  8.56124  0.00000 -0.12248
      16     H     0.41758  0.41758  0.00000  0.16484
      17     H     0.41632  0.41632  0.00000  0.16736
      18     H     0.43924  0.43924  0.00000  0.12152
      19     H     0.43426  0.43426  0.00000  0.13147
      20     H     0.43575  0.43575  0.00000  0.12850
      21     H     0.43875  0.43875  0.00000  0.12251
      22     H     0.43109  0.43109  0.00000  0.13781
      23     H     0.43417  0.43417  0.00000  0.13167
      24     H     0.43192  0.43192  0.00000  0.13616
      25     H     0.43162  0.43162  0.00000  0.13677
      26     H     0.43772  0.43772  0.00000  0.12456

   Total alpha = 51.00000, Total beta = 51.00000, Total charge = -0.00000

    Molecular point group: c1

    Geometry (in Angstrom), charge = 0, multiplicity = 1:

       Center              X                  Y                   Z               Mass
    ------------   -----------------  -----------------  -----------------  -----------------
         C            3.770506380256     1.445409538286     0.453605601733    12.000000000000
         C            2.270691235170     1.719668306906     0.551095976072    12.000000000000
         C            1.669140492499     0.505504011619    -0.107420638311    12.000000000000
         C            2.580254906684    -0.112320426888    -0.882901954950    12.000000000000
         C            3.908018774505     0.581289745947    -0.798170126016    12.000000000000
         C            0.266866787068     0.168112112622     0.052974079638    12.000000000000
         C           -0.178497260351    -1.155245143973     0.075524675681    12.000000000000
         C           -1.519424108565    -1.464122344608     0.229223397488    12.000000000000
         C           -2.439981852564    -0.438434855587     0.371957212265    12.000000000000
         C           -2.028536421962     0.884842412547     0.377881688200    12.000000000000
         C           -0.683748228433     1.176295920212     0.227497123931    12.000000000000
         C            2.384067487189    -1.239836756627    -1.829026794422    12.000000000000
         H           -0.368852948016     2.206446543287     0.233285537977     1.007825032230
         H           -2.753585871199     1.669495638645     0.501110079582     1.007825032230
         CL          -4.117119356113    -0.814194435633     0.564866376347    34.968852682000
         H           -1.851035991870    -2.486881277472     0.252591652628     1.007825032230
         H            0.539001402148    -1.954414426634     0.005929845083     1.007825032230
         H            4.073922324240     0.860888174725     1.317753637728     1.007825032230
         H            4.373288182948     2.346581140101     0.426395312216     1.007825032230
         H            4.742094023672    -0.114801766970    -0.748011134640     1.007825032230
         H            4.057628798301     1.191029632456    -1.692202298477     1.007825032230
         H            1.335988812388    -1.426454077098    -2.036685468876     1.007825032230
         H            2.887421759577    -1.020830394112    -2.768675331616     1.007825032230
         H            2.825119730515    -2.159398943686    -1.445976480728     1.007825032230
         H            1.929792639216     1.857577704051     1.573302383357     1.007825032230
         H            2.001682271766     2.620169849697    -0.004114639819     1.007825032230

*** Psi4 exiting successfully. Buy a developer a beer!
