                               Psi4 1.4 release

  ==> Input File <==

--------------------------------------------------------------------------
memory 62 GB

molecule mol {
0 1
 C     0.355130     0.111221    -1.467412
 C    -0.000000    -0.000000     0.000000
 C     0.828100     0.881905     0.953535
 C     2.091555     0.051810     1.254924
 C     2.370953    -0.722993    -0.049363
 C     0.983556    -0.988346    -0.633510
 C    -1.373576    -0.413221     0.414448
 C    -1.542792    -1.321567     1.480545
 C    -2.825059    -1.692334     1.911870
 C    -3.961673    -1.159299     1.279913
 C    -3.805653    -0.253936     0.218219
 C    -2.519836     0.117392    -0.208007
 H    -2.398432     0.829298    -1.030811
 H    -4.686419     0.165723    -0.277661
Cl    -5.553554    -1.622698     1.807905
 H    -2.939181    -2.402495     2.736730
 H    -0.656700    -1.746978     1.964470
 H     0.659437    -2.015061    -0.827996
 H    -0.405740    -0.188168    -2.193765
 H     0.996446     0.943276    -1.777222
 H     2.921789    -1.659184     0.134099
 H     2.979683    -0.115336    -0.742780
 H     1.856488    -0.672951     2.054626
 H     2.945544     0.661232     1.596113
 H     0.256631     1.122533     1.863868
 H     1.092347     1.837771     0.466059
}

set scf_type df
set basis cc-pVDZ
set reference rhf

mol.update_geometry()
mol.symmetrize(1e-3)

e, wfn = optimize('CCSD', return_wfn=True)
oeprop(wfn, "MULLIKEN_CHARGES")
mol.print_out()
print_variables()
--------------------------------------------------------------------------

    Molecular point group: c1
  Charge       = 0
  Multiplicity = 1
  Basis Set: CC-PVDZ
    Blend: CC-PVDZ
  Basis Set: (CC-PVDZ AUX)
    Blend: CC-PVDZ-JKFIT
  @DF-RHF Final Energy:  -921.49215927396529
    Total Energy =                       -921.4921592739651715
      * MP2 total energy                      = -923.283840559269606
      * CCSD total energy                     = -923.370747321303497
    Molecular point group: c1
  Basis Set: CC-PVDZ
    Blend: CC-PVDZ
  Basis Set: (CC-PVDZ AUX)
    Blend: CC-PVDZ-JKFIT
  @DF-RHF Final Energy:  -921.49265303987352
    Total Energy =                       -921.4926530398734030
      * MP2 total energy                      = -923.283835325191831
      * CCSD total energy                     = -923.371125870616765
  Basis Set: CC-PVDZ
    Blend: CC-PVDZ
  Basis Set: (CC-PVDZ AUX)
    Blend: CC-PVDZ-JKFIT
  @DF-RHF Final Energy:  -921.49279436907204
    Total Energy =                       -921.4927943690720440
      * MP2 total energy                      = -923.283841568755065
      * CCSD total energy                     = -923.371162024707132
  @DF-RHF Final Energy:  -921.49285827149720
    Total Energy =                       -921.4928582714971981
      * MP2 total energy                      = -923.283835479178833
      * CCSD total energy                     = -923.371167305132076
    Blend: CC-PVDZ
  Basis Set: (CC-PVDZ AUX)
    Blend: CC-PVDZ-JKFIT
  @DF-RHF Final Energy:  -921.49287907075518
    Total Energy =                       -921.4928790707551798
      * MP2 total energy                      = -923.283829120567702
      * CCSD total energy                     = -923.371169092150012
  Basis Set: CC-PVDZ
    Blend: CC-PVDZ
  Basis Set: (CC-PVDZ AUX)
    Blend: CC-PVDZ-JKFIT
  @DF-RHF Final Energy:  -921.49290434078398
    Total Energy =                       -921.4929043407839799
      * MP2 total energy                      = -923.283820325333750
      * CCSD total energy                     = -923.371170759498682
  Multiplicity = 1
  Basis Set: CC-PVDZ
    Blend: CC-PVDZ
  Basis Set: (CC-PVDZ AUX)
    Blend: CC-PVDZ-JKFIT

    Orbital Energies [Eh]
    ---------------------

    Doubly Occupied:

       1A   -104.830599     2A    -11.305546     3A    -11.257230
       4A    -11.256809     5A    -11.255771     6A    -11.252618
       7A    -11.251898     8A    -11.246592     9A    -11.238711
      10A    -11.238090    11A    -11.234379    12A    -11.233721
      13A    -11.232316    14A    -10.557294    15A     -8.024922
      16A     -8.021526    17A     -8.021418    18A     -1.191626
      19A     -1.173276    20A     -1.110925    21A     -1.036069
      22A     -1.024390    23A     -1.001540    24A     -0.952930
      25A     -0.849874    26A     -0.835749    27A     -0.815289
      28A     -0.777672    29A     -0.747046    30A     -0.698497
      31A     -0.650077    32A     -0.645468    33A     -0.632543
      34A     -0.624586    35A     -0.594360    36A     -0.578449
      37A     -0.569936    38A     -0.568330    39A     -0.537592
      40A     -0.527133    41A     -0.511474    42A     -0.486643
      43A     -0.482485    44A     -0.475381    45A     -0.472406
      46A     -0.454751    47A     -0.449376    48A     -0.411508
      49A     -0.392775    50A     -0.345924    51A     -0.320426

  @DF-RHF Final Energy:  -921.49291421937619

   => Energetics <=

    Nuclear Repulsion Energy =            826.7743793188126347
    One-Electron Energy =               -2901.7226917481771125
    Two-Electron Energy =                1153.4553982099885161
    Total Energy =                       -921.4929142193761891

  Dipole Moment: [D]
     X:     2.3036      Y:     0.5190      Z:    -0.5773     Total:     2.4309

      * MP2 total energy                      = -923.283819077868429
      * CCSD total energy                     = -923.371171523935459
    Molecular point group: c1

  -Total gradient:
     Atom            X                  Y                   Z
    ------   -----------------  -----------------  -----------------
       1        0.000017837420     0.000018340786     0.000010497748
       2        0.000023634797    -0.000042269760     0.000000149723
       3        0.000020078370     0.000046038032    -0.000025767202
       4       -0.000006648386    -0.000010512612     0.000019737888
       5        0.000004553632     0.000012812041    -0.000015914976
       6       -0.000017134920    -0.000020034686    -0.000035453287
       7       -0.000078296809     0.000065442537    -0.000038392060
       8       -0.000012086276    -0.000077820955     0.000092255411
       9        0.000019316937     0.000034153493    -0.000038233231
      10       -0.000046057553     0.000021235869    -0.000012346491
      11        0.000009791644    -0.000062788755     0.000066650600
      12       -0.000011605196     0.000018265827    -0.000035817120
      13        0.000017903055    -0.000011376417     0.000010524987
      14        0.000002656249     0.000014144359    -0.000015793011
      15        0.000040318608     0.000007974942    -0.000012403806
      16        0.000008918486    -0.000009329629     0.000009056753
      17        0.000006109701     0.000020287809    -0.000021124489
      18        0.000012806274    -0.000006332683    -0.000006549829
      19       -0.000010929716     0.000006071264     0.000003732565
      20        0.000009592053    -0.000004374655     0.000000736827
      21        0.000003254649    -0.000009351167     0.000014051851
      22        0.000001322393    -0.000014375215    -0.000004890212
      23        0.000004943756    -0.000000926335     0.000012281012
      24        0.000001664114     0.000007493806    -0.000003066664
      25       -0.000002975576    -0.000014643746     0.000014717333
      26       -0.000018967721     0.000011875822     0.000011359654

  **** Optimization is complete! (in 7 steps) ****
    Final optimized geometry and variables:
    Molecular point group: c1

  Mulliken Charges: (a.u.)
   Center  Symbol    Alpha    Beta     Spin     Total
       1     C     2.96480  2.96480  0.00000  0.07040
       2     C     3.12181  3.12181  0.00000 -0.24362
       3     C     2.97350  2.97350  0.00000  0.05300
       4     C     3.02215  3.02215  0.00000 -0.04431
       5     C     2.99302  2.99302  0.00000  0.01396
       6     C     3.05127  3.05127  0.00000 -0.10255
       7     C     3.03710  3.03710  0.00000 -0.07421
       8     C     2.98683  2.98683  0.00000  0.02634
       9     C     2.95808  2.95808  0.00000  0.08384
      10     C     3.09029  3.09029  0.00000 -0.18058
      11     C     2.95839  2.95839  0.00000  0.08322
      12     C     2.99090  2.99090  0.00000  0.01821
      13     H     0.49262  0.49262  0.00000  0.01476
      14     H     0.48622  0.48622  0.00000  0.02755
      15    CL     8.53287  8.53287  0.00000 -0.06573
      16     H     0.48647  0.48647  0.00000  0.02706
      17     H     0.49403  0.49403  0.00000  0.01194
      18     H     0.49009  0.49009  0.00000  0.01981
      19     H     0.48023  0.48023  0.00000  0.03954
      20     H     0.48421  0.48421  0.00000  0.03158
      21     H     0.48275  0.48275  0.00000  0.03451
      22     H     0.48396  0.48396  0.00000  0.03207
      23     H     0.48420  0.48420  0.00000  0.03161
      24     H     0.48689  0.48689  0.00000  0.02622
      25     H     0.48285  0.48285  0.00000  0.03430
      26     H     0.48445  0.48445  0.00000  0.03109

   Total alpha = 51.00000, Total beta = 51.00000, Total charge = -0.00000

    Molecular point group: c1

    Geometry (in Angstrom), charge = 0, multiplicity = 1:

       Center              X                  Y                   Z               Mass
    ------------   -----------------  -----------------  -----------------  -----------------
         C            1.960882995807     0.748622883720    -2.122761362803    12.000000000000
         C            1.598935638301     0.629891686019    -0.655313352909    12.000000000000
         C            2.419123353283     1.519015599860     0.306365695285    12.000000000000
         C            3.705330301218     0.709728572681     0.593205602299    12.000000000000
         C            3.975643917367    -0.095633526212    -0.700060979100    12.000000000000
         C            2.582176786086    -0.355572168331    -1.286536095657    12.000000000000
         C            0.210577485510     0.224552688800    -0.250406046333    12.000000000000
         C            0.018735728343    -0.734627567316     0.764698080701    12.000000000000
         C           -1.267110586428    -1.098742872196     1.187578610121    12.000000000000
         C           -2.381963248952    -0.494822765296     0.587116296473    12.000000000000
         C           -2.220703728569     0.461806903293    -0.423047930721    12.000000000000
         C           -0.924939738642     0.815587181655    -0.832974287080    12.000000000000
         H           -0.797075901778     1.565746140423    -1.620326984799     1.007825032230
         H           -3.098597763261     0.924197117101    -0.882169593396     1.007825032230
         CL          -3.993302381658    -0.946559229523     1.104655826621    34.968852682000
         H           -1.408531465113    -1.847300756580     1.971766846435     1.007825032230
         H            0.890757207076    -1.211308741894     1.226048143531     1.007825032230
         H            2.266209050140    -1.383617625360    -1.492118635108     1.007825032230
         H            1.203434234478     0.454299317036    -2.856626245427     1.007825032230
         H            2.601734943806     1.583276103592    -2.430583800943     1.007825032230
         H            4.512899968970    -1.036841704605    -0.493836114019     1.007825032230
         H            4.597498780142     0.485947018564    -1.406181535190     1.007825032230
         H            3.502331647254     0.000847480188     1.418287462657     1.007825032230
         H            4.557278657018     1.340965325441     0.901644139033     1.007825032230
         H            1.852816043327     1.737747533713     1.226981579301     1.007825032230
         H            2.657557407046     2.488526544434    -0.169753994508     1.007825032230

*** Psi4 exiting successfully. Buy a developer a beer!
