                               Psi4 1.4 release

  ==> Input File <==

--------------------------------------------------------------------------
memory 32 GB

molecule mol {
1 1
    C            2.940729029582    -0.379409089862    -1.695460555315
    C            1.306346396785     1.037487004860    -0.787097816623
    C            2.129690625959     1.891254331322     0.047416379718
    C            3.275565283143     0.838087475447     0.470999750447
    C            3.954433852296     0.281334491811    -0.772246344920
    H            4.708811189259    -0.465375660880    -0.469358718295
    H            4.489814122413     1.084709919576    -1.306366160151
    H            2.827060621243     0.041411311681     1.085578774066
    H            3.953784402442     1.417870288066     1.116959404125
    H            1.622287334698     2.247985309516     0.952331460703
    H            2.634260038865     2.694940997202    -0.508160621028
    C            0.108646912984     0.385120581970    -0.234886831863
    C            0.121948195924    -0.845970366045     0.452501273746
    C           -1.078690664069    -1.380616215345     0.939747895239
    C           -2.286537703094    -0.691303364736     0.743111087908
    C           -2.302733546077     0.535734644026     0.057332791353
    C           -1.108332868688     1.078191933176    -0.432636553357
    H           -1.130281269030     2.034599789926    -0.964567440166
    H           -3.246307031747     1.066203252700    -0.092162923044
    CL          -3.760940356643    -1.353766413414     1.349332035430
    H           -1.076086740127    -2.333833331374     1.473847530993
    H            1.052104358736    -1.395645337307     0.614975137100
    C            1.796182378929     0.681448397799    -2.104787207565
    H            1.051648936676     0.176712268889    -2.732847492244
    H            2.306769475520     1.506850745830    -2.621712281795
    H            2.469872554531    -1.257787967625    -1.226081372511
    H            3.369173222568    -0.703155081736    -2.657557322757
}

set scf_type df
set basis cc-pVDZ
set reference rhf

mol.update_geometry()
mol.symmetrize(1e-3)

e, wfn = frequencies('mp2', return_wfn=True)
oeprop(wfn, "MULLIKEN_CHARGES")
mol.print_out()
print_variables()
--------------------------------------------------------------------------

    Molecular point group: c1
  Charge       = 1
  Multiplicity = 1
  Basis Set: CC-PVDZ
    Blend: CC-PVDZ
  Basis Set: (CC-PVDZ AUX)
    Blend: CC-PVDZ-JKFIT
  @DF-RHF Final Energy:  -921.83722088391983
    Total Energy =                       -921.8372208839198265
  Basis Set: (CC-PVDZ AUX)
    Blend: CC-PVDZ-RI
    Molecular point group: c1
  Basis Set: CC-PVDZ
    Blend: CC-PVDZ
  Basis Set: (CC-PVDZ AUX)
    Blend: CC-PVDZ-JKFIT
  Basis Set: (CC-PVDZ AUX)
    Blend: CC-PVDZ-JKFIT
	 Reference Energy          =    -921.8372208839198265 [Eh]
	 Singles Energy            =      -0.0000000000000000 [Eh]
	 Same-Spin Energy          =      -0.4631543713727392 [Eh]
	 Opposite-Spin Energy      =      -1.3088738850867485 [Eh]
	 Correlation Energy        =      -1.7720282564594878 [Eh]
	 Total Energy              =    -923.6092491403793474 [Eh]
	 SCS Total Energy          =    -923.5622543364814874 [Eh]
  @DF-RHF Final Energy:  -921.83722088343654
    Total Energy =                       -921.8372208834366575
  @DF-RHF Final Energy:  -921.83722923338394
    Total Energy =                       -921.8372292333840505
  @DF-RHF Final Energy:  -921.83721143091498
    Total Energy =                       -921.8372114309149765
  @DF-RHF Final Energy:  -921.83722126685313
    Total Energy =                       -921.8372212668532484
  @DF-RHF Final Energy:  -921.83721914637965
    Total Energy =                       -921.8372191463795389
  @DF-RHF Final Energy:  -921.83723642764244
    Total Energy =                       -921.8372364276424378
  @DF-RHF Final Energy:  -921.83720382209242
    Total Energy =                       -921.8372038220925333
  @DF-RHF Final Energy:  -921.83722496202108
    Total Energy =                       -921.8372249620210823
  @DF-RHF Final Energy:  -921.83721557473257
    Total Energy =                       -921.8372155747326815
  @DF-RHF Final Energy:  -921.83721352040288
    Total Energy =                       -921.8372135204028837
  @DF-RHF Final Energy:  -921.83722719370837
    Total Energy =                       -921.8372271937082587
  @DF-RHF Final Energy:  -921.83722446901868
    Total Energy =                       -921.8372244690185653
  @DF-RHF Final Energy:  -921.83721592225629
    Total Energy =                       -921.8372159222562914
  @DF-RHF Final Energy:  -921.83720331249492
    Total Energy =                       -921.8372033124949212
  @DF-RHF Final Energy:  -921.83723745711359
    Total Energy =                       -921.8372374571135879
  @DF-RHF Final Energy:  -921.83722018464812
    Total Energy =                       -921.8372201846480039
  @DF-RHF Final Energy:  -921.83722029923808
    Total Energy =                       -921.8372202992381972
  @DF-RHF Final Energy:  -921.83720531903919
    Total Energy =                       -921.8372053190391853
  @DF-RHF Final Energy:  -921.83723488088367
    Total Energy =                       -921.8372348808836705
  @DF-RHF Final Energy:  -921.83722599002681
    Total Energy =                       -921.8372259900268091
  @DF-RHF Final Energy:  -921.83721455743807
    Total Energy =                       -921.8372145574380738
  @DF-RHF Final Energy:  -921.83720239665627
    Total Energy =                       -921.8372023966562665
  @DF-RHF Final Energy:  -921.83723494246647
    Total Energy =                       -921.8372349424664662
  @DF-RHF Final Energy:  -921.83723669120297
    Total Energy =                       -921.8372366912028610
  @DF-RHF Final Energy:  -921.83719976500356
    Total Energy =                       -921.8371997650035610
  @DF-RHF Final Energy:  -921.83724848495308
    Total Energy =                       -921.8372484849530792
  @DF-RHF Final Energy:  -921.83718887039458
    Total Energy =                       -921.8371888703945842
  @DF-RHF Final Energy:  -921.83718981277434
    Total Energy =                       -921.8371898127743407
  @DF-RHF Final Energy:  -921.83724720404985
    Total Energy =                       -921.8372472040498451
  @DF-RHF Final Energy:  -921.83717841497582
    Total Energy =                       -921.8371784149758241
  @DF-RHF Final Energy:  -921.83725956324633
    Total Energy =                       -921.8372595632463344
  @DF-RHF Final Energy:  -921.83720782069429
    Total Energy =                       -921.8372078206944025
  @DF-RHF Final Energy:  -921.83723167674339
    Total Energy =                       -921.8372316767433858
  @DF-RHF Final Energy:  -921.83721312436012
    Total Energy =                       -921.8372131243602325
  @DF-RHF Final Energy:  -921.83722567663335
    Total Energy =                       -921.8372256766333521
  @DF-RHF Final Energy:  -921.83724671364735
    Total Energy =                       -921.8372467136473460
  @DF-RHF Final Energy:  -921.83718850748323
    Total Energy =                       -921.8371885074832335
  @DF-RHF Final Energy:  -921.83716133535665
    Total Energy =                       -921.8371613353567682
  Charge       = 1
  Multiplicity = 1
  Basis Set: CC-PVDZ
    Blend: CC-PVDZ
  Basis Set: (CC-PVDZ AUX)
    Blend: CC-PVDZ-JKFIT

    Orbital Energies [Eh]
    ---------------------

    Doubly Occupied:

       1A   -104.947339     2A    -11.539907     3A    -11.442322
       4A    -11.428078     5A    -11.428039     6A    -11.425264
       7A    -11.423126     8A    -11.422883     9A    -11.413378
      10A    -11.411590    11A    -11.395892    12A    -11.395820
      13A    -11.395271    14A    -10.674270    15A     -8.141916
      16A     -8.138215    17A     -8.138170    18A     -1.363619
      19A     -1.317122    20A     -1.259200    21A     -1.205029
      22A     -1.201420    23A     -1.172875    24A     -1.134361
      25A     -1.031451    26A     -1.009473    27A     -0.990555
      28A     -0.963314    29A     -0.919262    30A     -0.863346
      31A     -0.819753    32A     -0.803808    33A     -0.796255
      34A     -0.794674    35A     -0.764026    36A     -0.756576
      37A     -0.745586    38A     -0.741711    39A     -0.711697
      40A     -0.701083    41A     -0.671403    42A     -0.661270
      43A     -0.660862    44A     -0.656532    45A     -0.640127
      46A     -0.636915    47A     -0.630704    48A     -0.591799
      49A     -0.564894    50A     -0.490591    51A     -0.467625

  @DF-RHF Final Energy:  -921.83727365056723

   => Energetics <=

    Nuclear Repulsion Energy =            840.1115732550241546
    One-Electron Energy =               -2912.0968992672496825
    Two-Electron Energy =                1150.1480523616580740
    Total Energy =                       -921.8372736505673402

  Dipole Moment: [D]
     X:     8.1772      Y:     3.3427      Z:    -3.1536     Total:     9.3800

  Basis Set: (CC-PVDZ AUX)
    Blend: CC-PVDZ-RI
    Molecular point group: c1
  Basis Set: CC-PVDZ
    Blend: CC-PVDZ
  Basis Set: (CC-PVDZ AUX)
    Blend: CC-PVDZ-JKFIT
  Basis Set: (CC-PVDZ AUX)
    Blend: CC-PVDZ-JKFIT
	 Reference Energy          =    -921.8372736505672265 [Eh]
	 Singles Energy            =      -0.0000000000000000 [Eh]
	 Same-Spin Energy          =      -0.4631444678988393 [Eh]
	 Opposite-Spin Energy      =      -1.3088281865648579 [Eh]
	 Correlation Energy        =      -1.7719726544636971 [Eh]
	 Total Energy              =    -923.6092463050309789 [Eh]

	 ================> DF-SCS-MP2 Energies <==================
	-----------------------------------------------------------
	 SCS Same-Spin Scale       =       0.3333333333333333 [-]
	 SCS Opposite-Spin Scale   =       1.2000000000000000 [-]
	 SCS Same-Spin Energy      =      -0.1543814892996131 [Eh]
	 SCS Opposite-Spin Energy  =      -1.5705938238778294 [Eh]
	 SCS Correlation Energy    =      -1.7249753131774426 [Eh]
	 SCS Total Energy          =    -923.5622489637446506 [Eh]
	-----------------------------------------------------------

  -Total Gradient:
     Atom            X                  Y                   Z
    ------   -----------------  -----------------  -----------------
       1        0.000092944633    -0.000880982478    -0.000221022994
       2        0.000036420456     0.000079404342     0.000010296736
       3        0.000041547483    -0.000016861058     0.000025710329
       4       -0.000024007825    -0.000000294986    -0.000000721686
       5        0.000024350093     0.000010659434     0.000096202875
       6        0.000006627022     0.000003189635    -0.000020173103
       7       -0.000025837777     0.000018475264    -0.000003756373
       8       -0.000002772790     0.000002454921     0.000002196991
       9        0.000007882175    -0.000005577612    -0.000003857627
      10       -0.000005819644    -0.000018616935     0.000001036069
      11       -0.000003446806     0.000003968744     0.000004375365
      12       -0.000019873940    -0.000026282444    -0.000064340019
      13        0.000013566934     0.000040365197     0.000092903160
      14        0.000181713381    -0.000001688039    -0.000083814469
      15       -0.000606860272    -0.000298507285     0.000195956906
      16        0.000119757145     0.000091552077    -0.000133383463
      17       -0.000003589444     0.000013383730     0.000004857083
      18       -0.000002422852     0.000005116991     0.000008714459
      19       -0.000006481321    -0.000011014557     0.000000222587
      20        0.000321352854     0.000177744554    -0.000061903148
      21       -0.000012310476    -0.000002437657    -0.000003777885
      22       -0.000002687778    -0.000001294096     0.000006496878
      23       -0.000188109023     0.000080398099    -0.000011882160
      24        0.000021797964    -0.000017664681    -0.000009795519
      25        0.000007990428     0.000006639119     0.000011500945
      26        0.000490417241     0.000721870403    -0.000576941520
      27       -0.000462147903     0.000025999287     0.000734899552

  Vibration                       1                   8                   9
  Freq [cm^-1]                144.6128i            59.7948             79.9138
  Irrep                           A                   A                   A
  Reduced mass [u]              3.7219              5.4297              4.1147
  Force const [mDyne/A]        -0.0459              0.0114              0.0155

  Vibration                       10                  11                  12
  Freq [cm^-1]                 142.1660            165.9474            193.7744
  Irrep                           A                   A                   A
  Reduced mass [u]              2.8470              6.0458              5.5562
  Force const [mDyne/A]         0.0339              0.0981              0.1229

  Vibration                       13                  14                  15
  Freq [cm^-1]                 258.6578            294.7088            315.5476
  Irrep                           A                   A                   A
  Reduced mass [u]              3.2075              3.0091              4.9809
  Force const [mDyne/A]         0.1264              0.1540              0.2922

  Vibration                       16                  17                  18
  Freq [cm^-1]                 344.1058            375.0490            404.9912
  Irrep                           A                   A                   A
  Reduced mass [u]              2.1917              3.3372              4.0960
  Force const [mDyne/A]         0.1529              0.2766              0.3958

  Vibration                       19                  20                  21
  Freq [cm^-1]                 450.9496            513.0415            539.8215
  Irrep                           A                   A                   A
  Reduced mass [u]              3.4430              1.6787              3.1215
  Force const [mDyne/A]         0.4125              0.2603              0.5359

  Vibration                       22                  23                  24
  Freq [cm^-1]                 613.0876            624.3385            645.0156
  Irrep                           A                   A                   A
  Reduced mass [u]              4.3619              6.0004              6.8278
  Force const [mDyne/A]         0.9660              1.3781              1.6737

  Vibration                       25                  26                  27
  Freq [cm^-1]                 693.7523            737.3914            776.7722
  Irrep                           A                   A                   A
  Reduced mass [u]              2.2328              4.4316              4.9513
  Force const [mDyne/A]         0.6332              1.4197              1.7602

  Vibration                       28                  29                  30
  Freq [cm^-1]                 813.8190            823.7157            826.0239
  Irrep                           A                   A                   A
  Reduced mass [u]              1.4413              3.2634              1.6685
  Force const [mDyne/A]         0.5624              1.3046              0.6708

  Vibration                       31                  32                  33
  Freq [cm^-1]                 826.8865            874.5244            924.5947
  Irrep                           A                   A                   A
  Reduced mass [u]              1.2333              1.6444              1.1391
  Force const [mDyne/A]         0.4968              0.7410              0.5737

  Vibration                       34                  35                  36
  Freq [cm^-1]                 934.4565            951.3232            958.2924
  Irrep                           A                   A                   A
  Reduced mass [u]              2.4331              1.3078              1.2830
  Force const [mDyne/A]         1.2518              0.6973              0.6942

  Vibration                       37                  38                  39
  Freq [cm^-1]                 963.9952           1014.0243           1023.2276
  Irrep                           A                   A                   A
  Reduced mass [u]              1.8380              2.8763              1.3857
  Force const [mDyne/A]         1.0063              1.7425              0.8548

  Vibration                       40                  41                  42
  Freq [cm^-1]                1025.0742           1086.0024           1089.5450
  Irrep                           A                   A                   A
  Reduced mass [u]              2.4507              1.1079              1.3122
  Force const [mDyne/A]         1.5172              0.7698              0.9178

  Vibration                       43                  44                  45
  Freq [cm^-1]                1106.0029           1132.8852           1141.3587
  Irrep                           A                   A                   A
  Reduced mass [u]              1.6428              1.4103              2.7140
  Force const [mDyne/A]         1.1840              1.0665              2.0830

  Vibration                       46                  47                  48
  Freq [cm^-1]                1185.1498           1204.5477           1206.3315
  Irrep                           A                   A                   A
  Reduced mass [u]              1.5074              1.3248              1.2966
  Force const [mDyne/A]         1.2475              1.1325              1.1117

  Vibration                       49                  50                  51
  Freq [cm^-1]                1215.6513           1256.1172           1272.6221
  Irrep                           A                   A                   A
  Reduced mass [u]              1.1547              1.4033              1.3373
  Force const [mDyne/A]         1.0054              1.3045              1.2760

  Vibration                       52                  53                  54
  Freq [cm^-1]                1276.5045           1306.4532           1330.3407
  Irrep                           A                   A                   A
  Reduced mass [u]              1.1642              1.2826              1.5263
  Force const [mDyne/A]         1.1177              1.2898              1.5915

  Vibration                       55                  56                  57
  Freq [cm^-1]                1377.5852           1378.2034           1391.7746
  Irrep                           A                   A                   A
  Reduced mass [u]              1.5146              2.7440              1.6433
  Force const [mDyne/A]         1.6935              3.0708              1.8754

  Vibration                       58                  59                  60
  Freq [cm^-1]                1428.3660           1465.5056           1470.3439
  Irrep                           A                   A                   A
  Reduced mass [u]              2.3022              1.0914              1.1103
  Force const [mDyne/A]         2.7674              1.3811              1.4142

  Vibration                       61                  62                  63
  Freq [cm^-1]                1487.6002           1491.8120           1510.7394
  Irrep                           A                   A                   A
  Reduced mass [u]              1.3256              3.5887              1.7780
  Force const [mDyne/A]         1.7283              4.7055              2.3909

  Vibration                       64                  65                  66
  Freq [cm^-1]                1520.0937           1530.1087           1598.6382
  Irrep                           A                   A                   A
  Reduced mass [u]              1.6783              1.6856              7.1451
  Force const [mDyne/A]         2.2849              2.3251             10.7586

  Vibration                       67                  68                  69
  Freq [cm^-1]                1640.0187           3099.9663           3119.8460
  Irrep                           A                   A                   A
  Reduced mass [u]              6.2544              1.0615              1.0622
  Force const [mDyne/A]         9.9113              6.0102              6.0912

  Vibration                       70                  71                  72
  Freq [cm^-1]                3122.0100           3131.1331           3135.2989
  Irrep                           A                   A                   A
  Reduced mass [u]              1.0601              1.0586              1.0582
  Force const [mDyne/A]         6.0881              6.1150              6.1286

  Vibration                       73                  74                  75
  Freq [cm^-1]                3160.2527           3188.9949           3191.2699
  Irrep                           A                   A                   A
  Reduced mass [u]              1.1042              1.1059              1.1063
  Force const [mDyne/A]         6.4972              6.6264              6.6379

  Vibration                       76                  77                  78
  Freq [cm^-1]                3228.4435           3231.5996           3234.0930
  Irrep                           A                   A                   A
  Reduced mass [u]              1.0905              1.1115              1.1128
  Force const [mDyne/A]         6.6965              6.8392              6.8577

  Vibration                       79                  80                  81
  Freq [cm^-1]                3246.5426           3260.3451           3262.8580
  Irrep                           A                   A                   A
  Reduced mass [u]              1.0887              1.0960              1.0974
  Force const [mDyne/A]         6.7606              6.8643              6.8834

  ==> Thermochemistry Components <==

  Entropy, S
    Electronic S            0.000 [cal/(mol K)]        0.000 [J/(mol K)]       0.00000000 [mEh/K] (multiplicity = 1)
    Translational S        41.679 [cal/(mol K)]      174.386 [J/(mol K)]       0.06641994 [mEh/K] (mol. weight = 193.0784 [u], P = 101325.00 [Pa])
    Rotational S           31.782 [cal/(mol K)]      132.975 [J/(mol K)]       0.05064769 [mEh/K] (symmetry no. = 1)
    Vibrational S          29.988 [cal/(mol K)]      125.471 [J/(mol K)]       0.04778928 [mEh/K]
  Total S                 103.449 [cal/(mol K)]      432.832 [J/(mol K)]       0.16485691 [mEh/K]
  Correction S              0.000 [cal/(mol K)]        0.000 [J/(mol K)]       0.00000000 [mEh/K]

  Constant volume heat capacity, Cv
    Electronic Cv           0.000 [cal/(mol K)]        0.000 [J/(mol K)]       0.00000000 [mEh/K]
    Translational Cv        2.981 [cal/(mol K)]       12.472 [J/(mol K)]       0.00475022 [mEh/K]
    Rotational Cv           2.981 [cal/(mol K)]       12.472 [J/(mol K)]       0.00475022 [mEh/K]
    Vibrational Cv         38.442 [cal/(mol K)]      160.842 [J/(mol K)]       0.06126142 [mEh/K]
  Total Cv                 44.404 [cal/(mol K)]      185.785 [J/(mol K)]       0.07076185 [mEh/K]
  Correction Cv             0.000 [cal/(mol K)]        0.000 [J/(mol K)]       0.00000000 [mEh/K]

  Constant pressure heat capacity, Cp
    Electronic Cp           0.000 [cal/(mol K)]        0.000 [J/(mol K)]       0.00000000 [mEh/K]
    Translational Cp        4.968 [cal/(mol K)]       20.786 [J/(mol K)]       0.00791703 [mEh/K]
    Rotational Cp           2.981 [cal/(mol K)]       12.472 [J/(mol K)]       0.00475022 [mEh/K]
    Vibrational Cp         38.442 [cal/(mol K)]      160.842 [J/(mol K)]       0.06126142 [mEh/K]
  Total Cp                 46.391 [cal/(mol K)]      194.100 [J/(mol K)]       0.07392866 [mEh/K]
  Correction Cp             0.000 [cal/(mol K)]        0.000 [J/(mol K)]       0.00000000 [mEh/K]

  ==> Thermochemistry Energy Analysis <==

  Raw electronic energy, E0
  Total E0, Electronic energy at well bottom at 0 [K]                 -923.60924914 [Eh]

  Zero-point energy, ZPE_vib = Sum_i nu_i / 2
    Electronic ZPE          0.000 [kcal/mol]        0.000 [kJ/mol]       0.00000000 [Eh]
    Translational ZPE       0.000 [kcal/mol]        0.000 [kJ/mol]       0.00000000 [Eh]
    Rotational ZPE          0.000 [kcal/mol]        0.000 [kJ/mol]       0.00000000 [Eh]
    Vibrational ZPE       144.246 [kcal/mol]      603.526 [kJ/mol]       0.22987108 [Eh]       50450.870 [cm^-1]
  Correction ZPE          144.246 [kcal/mol]      603.526 [kJ/mol]       0.22987108 [Eh]       50450.870 [cm^-1]
  Total ZPE, Electronic energy at 0 [K]                               -923.37937806 [Eh]

  Thermal Energy, E (includes ZPE)
    Electronic E            0.000 [kcal/mol]        0.000 [kJ/mol]       0.00000000 [Eh]
    Translational E         0.889 [kcal/mol]        3.718 [kJ/mol]       0.00141628 [Eh]
    Rotational E            0.889 [kcal/mol]        3.718 [kJ/mol]       0.00141628 [Eh]
    Vibrational E         149.357 [kcal/mol]      624.909 [kJ/mol]       0.23801517 [Eh]
  Correction E            151.134 [kcal/mol]      632.346 [kJ/mol]       0.24084773 [Eh]
  Total E, Electronic energy at  298.15 [K]                           -923.36840141 [Eh]

  Enthalpy, H_trans = E_trans + k_B * T
    Electronic H            0.000 [kcal/mol]        0.000 [kJ/mol]       0.00000000 [Eh]
    Translational H         1.481 [kcal/mol]        6.197 [kJ/mol]       0.00236046 [Eh]
    Rotational H            0.889 [kcal/mol]        3.718 [kJ/mol]       0.00141628 [Eh]
    Vibrational H         149.357 [kcal/mol]      624.909 [kJ/mol]       0.23801517 [Eh]
  Correction H            151.727 [kcal/mol]      634.825 [kJ/mol]       0.24179191 [Eh]
  Total H, Enthalpy at  298.15 [K]                                    -923.36745723 [Eh]

  Gibbs free energy, G = H - T * S
    Electronic G            0.000 [kcal/mol]        0.000 [kJ/mol]       0.00000000 [Eh]
    Translational G       -10.945 [kcal/mol]      -45.796 [kJ/mol]      -0.01744264 [Eh]
    Rotational G           -8.587 [kcal/mol]      -35.928 [kJ/mol]      -0.01368433 [Eh]
    Vibrational G         140.416 [kcal/mol]      587.500 [kJ/mol]       0.22376680 [Eh]
  Correction G            120.883 [kcal/mol]      505.776 [kJ/mol]       0.19263982 [Eh]
  Total G, Free enthalpy at  298.15 [K]                               -923.41660932 [Eh]

  Mulliken Charges: (a.u.)
   Center  Symbol    Alpha    Beta     Spin     Total
       1     C     3.05219  3.05219  0.00000 -0.10438
       2     C     3.04853  3.04853  0.00000 -0.09706
       3     C     2.96976  2.96976  0.00000  0.06049
       4     C     3.05212  3.05212  0.00000 -0.10424
       5     C     3.03258  3.03258  0.00000 -0.06516
       6     H     0.44846  0.44846  0.00000  0.10308
       7     H     0.45919  0.45919  0.00000  0.08163
       8     H     0.45438  0.45438  0.00000  0.09124
       9     H     0.44346  0.44346  0.00000  0.11308
      10     H     0.44484  0.44484  0.00000  0.11032
      11     H     0.44609  0.44609  0.00000  0.10782
      12     C     3.03225  3.03225  0.00000 -0.06449
      13     C     3.01138  3.01138  0.00000 -0.02277
      14     C     2.94721  2.94721  0.00000  0.10558
      15     C     3.08383  3.08383  0.00000 -0.16766
      16     C     2.95231  2.95231  0.00000  0.09538
      17     C     2.98910  2.98910  0.00000  0.02180
      18     H     0.47461  0.47461  0.00000  0.05077
      19     H     0.46421  0.46421  0.00000  0.07158
      20    CL     8.49155  8.49155  0.00000  0.01690
      21     H     0.46616  0.46616  0.00000  0.06768
      22     H     0.47730  0.47730  0.00000  0.04541
      23     C     2.96980  2.96980  0.00000  0.06039
      24     H     0.44482  0.44482  0.00000  0.11037
      25     H     0.44608  0.44608  0.00000  0.10785
      26     H     0.45439  0.45439  0.00000  0.09122
      27     H     0.44342  0.44342  0.00000  0.11316

   Total alpha = 51.00000, Total beta = 51.00000, Total charge =  1.00000

    Molecular point group: c1

    Geometry (in Angstrom), charge = 1, multiplicity = 1:

       Center              X                  Y                   Z               Mass
    ------------   -----------------  -----------------  -----------------  -----------------
         C            2.940729029582    -0.379409089862    -1.695460555315    12.000000000000
         C            1.306346396785     1.037487004860    -0.787097816623    12.000000000000
         C            2.129690625959     1.891254331322     0.047416379718    12.000000000000
         C            3.275565283143     0.838087475447     0.470999750447    12.000000000000
         C            3.954433852296     0.281334491811    -0.772246344920    12.000000000000
         H            4.708811189259    -0.465375660880    -0.469358718295     1.007825032230
         H            4.489814122413     1.084709919576    -1.306366160151     1.007825032230
         H            2.827060621243     0.041411311681     1.085578774066     1.007825032230
         H            3.953784402442     1.417870288066     1.116959404125     1.007825032230
         H            1.622287334698     2.247985309516     0.952331460703     1.007825032230
         H            2.634260038865     2.694940997202    -0.508160621028     1.007825032230
         C            0.108646912984     0.385120581970    -0.234886831863    12.000000000000
         C            0.121948195924    -0.845970366045     0.452501273746    12.000000000000
         C           -1.078690664069    -1.380616215345     0.939747895239    12.000000000000
         C           -2.286537703094    -0.691303364736     0.743111087908    12.000000000000
         C           -2.302733546077     0.535734644026     0.057332791353    12.000000000000
         C           -1.108332868688     1.078191933176    -0.432636553357    12.000000000000
         H           -1.130281269030     2.034599789926    -0.964567440166     1.007825032230
         H           -3.246307031747     1.066203252700    -0.092162923044     1.007825032230
         CL          -3.760940356643    -1.353766413414     1.349332035430    34.968852682000
         H           -1.076086740127    -2.333833331374     1.473847530993     1.007825032230
         H            1.052104358736    -1.395645337307     0.614975137100     1.007825032230
         C            1.796182378929     0.681448397799    -2.104787207565    12.000000000000
         H            1.051648936676     0.176712268889    -2.732847492244     1.007825032230
         H            2.306769475520     1.506850745830    -2.621712281795     1.007825032230
         H            2.469872554531    -1.257787967625    -1.226081372511     1.007825032230
         H            3.369173222568    -0.703155081736    -2.657557322757     1.007825032230

*** Psi4 exiting successfully. Buy a developer a beer!
