                               Psi4 1.4 release

  ==> Input File <==

--------------------------------------------------------------------------
molecule mol {
0 1
 C     1.511290    -0.280966    -0.092593
 C    -0.000000     0.000000     0.000000
 C    -0.605968    -1.226439    -0.664954
 C     0.319060    -1.848819    -1.451355
 C     1.653820    -1.134973    -1.365322
 C    -2.027094    -1.583009    -0.507457
 C    -2.438238    -2.928025    -0.366876
 C    -3.794208    -3.253627    -0.211477
 C    -4.766046    -2.240264    -0.182231
 C    -4.369571    -0.897483    -0.299270
 C    -3.014139    -0.572542    -0.452922
 C     0.120138    -2.993149    -2.399423
 H    -2.715369     0.476287    -0.545440
 H    -5.118805    -0.100426    -0.268581
 O    -6.099328    -2.559996    -0.025611
 H    -4.091097    -4.301038    -0.099616
 H    -1.681648    -3.717845    -0.347819
 H     1.812305    -0.886836     0.778541
 H     2.127353     0.631886    -0.103726
 H     2.509857    -1.831293    -1.328975
 H     1.794964    -0.502471    -2.264944
 H    -0.944311    -3.224044    -2.552012
 H     0.568816    -2.749556    -3.378502
 H     0.625600    -3.906462    -2.037287
 H    -0.354002     0.144380     1.034324
 H    -0.267853     0.913064    -0.567140
 H    -6.616502    -1.766689    -0.027354
}

set scf_type df
set basis cc-pVTZ
set reference rhf

mol.update_geometry()
mol.symmetrize(1e-3)

e, wfn = optimize('mp2', return_wfn=True)
oeprop(wfn, "MULLIKEN_CHARGES")
mol.print_out()
print_variables()
--------------------------------------------------------------------------

    Molecular point group: c1
  Charge       = 0
  Multiplicity = 1
  Basis Set: CC-PVTZ
    Blend: CC-PVTZ
  Basis Set: (CC-PVTZ AUX)
    Blend: CC-PVTZ-JKFIT
  @DF-RHF Final Energy:  -537.59680785990827
    Total Energy =                       -537.5968078599082673
  Basis Set: (CC-PVTZ AUX)
    Blend: CC-PVTZ-RI
    Molecular point group: c1
  Basis Set: CC-PVTZ
    Blend: CC-PVTZ
  Basis Set: (CC-PVTZ AUX)
    Blend: CC-PVTZ-JKFIT
  Basis Set: (CC-PVTZ AUX)
    Blend: CC-PVTZ-JKFIT
	 Reference Energy          =    -537.5968078599082673 [Eh]
	 Singles Energy            =      -0.0000000000000000 [Eh]
	 Same-Spin Energy          =      -0.5787838450412816 [Eh]
	 Opposite-Spin Energy      =      -1.8122370932545744 [Eh]
	 Correlation Energy        =      -2.3910209382958558 [Eh]
	 Total Energy              =    -539.9878287982040774 [Eh]
	 SCS Total Energy          =    -539.9644203201607979 [Eh]
  @DF-RHF Final Energy:  -537.60414928877913
    Total Energy =                       -537.6041492887791264
  @DF-RHF Final Energy:  -537.60415457965837
    Total Energy =                       -537.6041545796583705
  @DF-RHF Final Energy:  -537.60412317282862
    Total Energy =                       -537.6041231728286220
  @DF-RHF Final Energy:  -537.60402114390274
    Total Energy =                       -537.6040211439027416
  @DF-RHF Final Energy:  -537.60401500489024
    Total Energy =                       -537.6040150048902433
  @DF-RHF Final Energy:  -537.60400664744304
    Total Energy =                       -537.6040066474430432
  Multiplicity = 1
  Basis Set: CC-PVTZ
    Blend: CC-PVTZ
  Basis Set: (CC-PVTZ AUX)
    Blend: CC-PVTZ-JKFIT

    Orbital Energies [Eh]
    ---------------------

    Doubly Occupied:

       1A    -20.586196     2A    -11.296314     3A    -11.234181
       4A    -11.231942     5A    -11.228245     6A    -11.227444
       7A    -11.221770     8A    -11.220875     9A    -11.216412
      10A    -11.214579    11A    -11.214339    12A    -11.213637
      13A    -11.212291    14A     -1.405214    15A     -1.164772
      16A     -1.133123    17A     -1.028915    18A     -1.022700
      19A     -1.009121    20A     -0.944196    21A     -0.903319
      22A     -0.848696    23A     -0.825638    24A     -0.783196
      25A     -0.733079    26A     -0.718445    27A     -0.658889
      28A     -0.649073    29A     -0.643928    30A     -0.621351
      31A     -0.590520    32A     -0.589884    33A     -0.585363
      34A     -0.574570    35A     -0.569447    36A     -0.555127
      37A     -0.545025    38A     -0.509040    39A     -0.495355
      40A     -0.493168    41A     -0.478493    42A     -0.477266
      43A     -0.465120    44A     -0.461854    45A     -0.357659
      46A     -0.341391    47A     -0.278502

  @DF-RHF Final Energy:  -537.60399286287111

   => Energetics <=

    Nuclear Repulsion Energy =            753.4792889245244396
    One-Electron Energy =               -2224.6072331931754889
    Two-Electron Energy =                 933.5239514057798260
    Total Energy =                       -537.6039928628711095

  Dipole Moment: [D]
     X:     0.1409      Y:     1.3067      Z:    -0.1203     Total:     1.3198

  Basis Set: (CC-PVTZ AUX)
    Blend: CC-PVTZ-RI
    Molecular point group: c1
  Basis Set: CC-PVTZ
    Blend: CC-PVTZ
  Basis Set: (CC-PVTZ AUX)
    Blend: CC-PVTZ-JKFIT
  Basis Set: (CC-PVTZ AUX)
    Blend: CC-PVTZ-JKFIT
	 Reference Energy          =    -537.6039928628711095 [Eh]
	 Singles Energy            =      -0.0000000000000000 [Eh]
	 Same-Spin Energy          =      -0.5796797520033833 [Eh]
	 Opposite-Spin Energy      =      -1.8106502582632376 [Eh]
	 Correlation Energy        =      -2.3903300102666210 [Eh]
	 Total Energy              =    -539.9943228731377758 [Eh]

	 ================> DF-SCS-MP2 Energies <==================
	-----------------------------------------------------------
	 SCS Same-Spin Scale       =       0.3333333333333333 [-]
	 SCS Opposite-Spin Scale   =       1.2000000000000000 [-]
	 SCS Same-Spin Energy      =      -0.1932265840011277 [Eh]
	 SCS Opposite-Spin Energy  =      -2.1727803099158849 [Eh]
	 SCS Correlation Energy    =      -2.3660068939170125 [Eh]
	 SCS Total Energy          =    -539.9699997567880700 [Eh]
	-----------------------------------------------------------

  -Total Gradient:
     Atom            X                  Y                   Z
    ------   -----------------  -----------------  -----------------
       1        0.000005031522    -0.000007430074     0.000010774981
       2        0.000000956681     0.000010571153    -0.000008708853
       3        0.000021540836    -0.000004905794     0.000003024151
       4       -0.000027373398     0.000021887033     0.000000476155
       5        0.000004358699    -0.000001921838    -0.000003028895
       6        0.000003872685     0.000002968025     0.000017540450
       7       -0.000011135294    -0.000024245783     0.000003438046
       8       -0.000009379238     0.000011539655    -0.000005951858
       9       -0.000001859991    -0.000017324548     0.000003722444
      10       -0.000012057554     0.000006193806     0.000009452133
      11       -0.000001936418     0.000018792418    -0.000011794903
      12        0.000022871671    -0.000011277196    -0.000014843583
      13       -0.000001318811    -0.000002962520     0.000000937030
      14        0.000008643285     0.000004261604    -0.000002175421
      15        0.000000105381    -0.000000261209    -0.000001406042
      16        0.000001373014    -0.000001920865     0.000000995609
      17        0.000004942456     0.000005336594    -0.000005105367
      18        0.000005072198     0.000005873178    -0.000001377978
      19       -0.000007911856    -0.000006923051     0.000002451292
      20        0.000000166459    -0.000000361467    -0.000003814932
      21       -0.000000734729    -0.000010616626     0.000003387022
      22        0.000000528896    -0.000004020732     0.000002326779
      23       -0.000004766675    -0.000002168116     0.000007532854
      24       -0.000005118417     0.000010675232    -0.000002702298
      25       -0.000003408580    -0.000000138953    -0.000007013427
      26       -0.000003906658     0.000001391248     0.000004057371
      27        0.000011443835    -0.000003011164    -0.000002192762

  **** Optimization is complete! (in 8 steps) ****
    Final optimized geometry and variables:
    Molecular point group: c1

  Mulliken Charges: (a.u.)
   Center  Symbol    Alpha    Beta     Spin     Total
       1     C     3.12670  3.12670  0.00000 -0.25340
       2     C     3.13611  3.13611  0.00000 -0.27222
       3     C     3.05162  3.05162  0.00000 -0.10324
       4     C     2.99082  2.99082  0.00000  0.01837
       5     C     3.12890  3.12890  0.00000 -0.25779
       6     C     2.90623  2.90623  0.00000  0.18754
       7     C     3.08348  3.08348  0.00000 -0.16695
       8     C     3.09795  3.09795  0.00000 -0.19590
       9     C     2.89487  2.89487  0.00000  0.21026
      10     C     3.11569  3.11569  0.00000 -0.23138
      11     C     3.10144  3.10144  0.00000 -0.20289
      12     C     3.20515  3.20515  0.00000 -0.41029
      13     H     0.42549  0.42549  0.00000  0.14903
      14     H     0.43606  0.43606  0.00000  0.12789
      15     O     4.14793  4.14793  0.00000 -0.29586
      16     H     0.42176  0.42176  0.00000  0.15648
      17     H     0.41875  0.41875  0.00000  0.16250
      18     H     0.44012  0.44012  0.00000  0.11975
      19     H     0.43555  0.43555  0.00000  0.12890
      20     H     0.43694  0.43694  0.00000  0.12613
      21     H     0.44013  0.44013  0.00000  0.11974
      22     H     0.43100  0.43100  0.00000  0.13799
      23     H     0.43552  0.43552  0.00000  0.12896
      24     H     0.43283  0.43283  0.00000  0.13434
      25     H     0.43330  0.43330  0.00000  0.13341
      26     H     0.43896  0.43896  0.00000  0.12208
      27     H     0.38672  0.38672  0.00000  0.22657

   Total alpha = 47.00000, Total beta = 47.00000, Total charge =  0.00000

    Molecular point group: c1

    Geometry (in Angstrom), charge = 0, multiplicity = 1:

       Center              X                  Y                   Z               Mass
    ------------   -----------------  -----------------  -----------------  -----------------
         C            3.315806950738     1.355680696819     0.514439565766    12.000000000000
         C            1.815793192556     1.628549631949     0.612039325569    12.000000000000
         C            1.213675323814     0.416309287433    -0.049638318270    12.000000000000
         C            2.125762460341    -0.198908728061    -0.825729830887    12.000000000000
         C            3.454540019442     0.492831380743    -0.738209624844    12.000000000000
         C           -0.188673673175     0.078412724994     0.113938155230    12.000000000000
         C           -0.639541179054    -1.243880247645     0.129363979792    12.000000000000
         C           -1.978753771159    -1.551216961688     0.286242589175    12.000000000000
         C           -2.909447265300    -0.533811891912     0.440061377082    12.000000000000
         C           -2.482703780859     0.786912038807     0.451771108714    12.000000000000
         C           -1.138698568651     1.083487035567     0.298827778964    12.000000000000
         C            1.928902670552    -1.324233701633    -1.774658121956    12.000000000000
         H           -0.826156358522     2.114395661919     0.310470170422     1.007825032230
         H           -3.199842976208     1.581919801176     0.583599487125     1.007825032230
         O           -4.215978293652    -0.891124615077     0.589099407429    15.994914619570
         H           -2.317051557708    -2.572614226297     0.306285551907     1.007825032230
         H            0.075416132955    -2.044647485221     0.051230242407     1.007825032230
         H            3.619300544166     0.770077886592     1.377932403689     1.007825032230
         H            3.918575309886     2.257090821054     0.488659640459     1.007825032230
         H            4.288245271394    -0.203775822182    -0.686466036385     1.007825032230
         H            3.607420477729     1.103648191457    -1.631132153586     1.007825032230
         H            0.880252501005    -1.506447976998    -1.983300887090     1.007825032230
         H            2.434226167209    -1.104906613973    -2.713344332712     1.007825032230
         H            2.365579355467    -2.246609618355    -1.393145155437     1.007825032230
         H            1.474565684980     1.763454054997     1.634607910331     1.007825032230
         H            1.546350782640     2.530912354955     0.059805278551     1.007825032230
         H           -4.735371528476    -0.089026066161     0.693529859792     1.007825032230

*** Psi4 exiting successfully. Buy a developer a beer!
