                               Psi4 1.4 release

  ==> Input File <==

--------------------------------------------------------------------------
molecule mol {
0 1
 C     0.355130     0.111221    -1.467412
 C    -0.000000    -0.000000     0.000000
 C     0.828100     0.881905     0.953535
 C     2.091555     0.051810     1.254924
 C     2.370953    -0.722993    -0.049363
 C     0.983556    -0.988346    -0.633510
 C    -1.373576    -0.413221     0.414448
 C    -1.542792    -1.321567     1.480545
 C    -2.825059    -1.692334     1.911870
 C    -3.961673    -1.159299     1.279913
 C    -3.805653    -0.253936     0.218219
 C    -2.519836     0.117392    -0.208007
 H    -2.398432     0.829298    -1.030811
 H    -4.686419     0.165723    -0.277661
Cl    -5.553554    -1.622698     1.807905
 H    -2.939181    -2.402495     2.736730
 H    -0.656700    -1.746978     1.964470
 H     0.659437    -2.015061    -0.827996
 H    -0.405740    -0.188168    -2.193765
 H     0.996446     0.943276    -1.777222
 H     2.921789    -1.659184     0.134099
 H     2.979683    -0.115336    -0.742780
 H     1.856488    -0.672951     2.054626
 H     2.945544     0.661232     1.596113
 H     0.256631     1.122533     1.863868
 H     1.092347     1.837771     0.466059
}

set scf_type df
set basis cc-pVDZ
set reference rhf

mol.update_geometry()
mol.symmetrize(1e-3)

e, wfn = optimize('mp2', return_wfn=True)
oeprop(wfn, "MULLIKEN_CHARGES")
mol.print_out()
print_variables()
--------------------------------------------------------------------------

    Molecular point group: c1
  Charge       = 0
  Multiplicity = 1
  Basis Set: CC-PVDZ
    Blend: CC-PVDZ
  Basis Set: (CC-PVDZ AUX)
    Blend: CC-PVDZ-JKFIT
  @DF-RHF Final Energy:  -921.49215927541604
    Total Energy =                       -921.4921592754160429
  Basis Set: (CC-PVDZ AUX)
    Blend: CC-PVDZ-RI
    Molecular point group: c1
  Basis Set: CC-PVDZ
    Blend: CC-PVDZ
  Basis Set: (CC-PVDZ AUX)
    Blend: CC-PVDZ-JKFIT
  Basis Set: (CC-PVDZ AUX)
    Blend: CC-PVDZ-JKFIT
	 Reference Energy          =    -921.4921592754160429 [Eh]
	 Singles Energy            =      -0.0000000000000000 [Eh]
	 Same-Spin Energy          =      -0.4727196900600592 [Eh]
	 Opposite-Spin Energy      =      -1.3179853464996545 [Eh]
	 Correlation Energy        =      -1.7907050365597137 [Eh]
	 Total Energy              =    -923.2828643119757999 [Eh]
	 SCS Total Energy          =    -923.2313149212355938 [Eh]
  @DF-RHF Final Energy:  -921.49270928511010
    Total Energy =                       -921.4927092851100952
  @DF-RHF Final Energy:  -921.49269422866325
    Total Energy =                       -921.4926942286633675
  Multiplicity = 1
  Basis Set: CC-PVDZ
    Blend: CC-PVDZ
  Basis Set: (CC-PVDZ AUX)
    Blend: CC-PVDZ-JKFIT

    Orbital Energies [Eh]
    ---------------------

    Doubly Occupied:

       1A   -104.830578     2A    -11.304982     3A    -11.256997
       4A    -11.256531     5A    -11.255069     6A    -11.252316
       7A    -11.251586     8A    -11.244873     9A    -11.238277
      10A    -11.237367    11A    -11.233400    12A    -11.232688
      13A    -11.231380    14A    -10.557435    15A     -8.025075
      16A     -8.021662    17A     -8.021555    18A     -1.193102
      19A     -1.174688    20A     -1.111679    21A     -1.038141
      22A     -1.024281    23A     -1.001990    24A     -0.953451
      25A     -0.850523    26A     -0.835821    27A     -0.815635
      28A     -0.778618    29A     -0.747344    30A     -0.699198
      31A     -0.650974    32A     -0.646026    33A     -0.633486
      34A     -0.624715    35A     -0.594635    36A     -0.579789
      37A     -0.570470    38A     -0.568996    39A     -0.537936
      40A     -0.527798    41A     -0.511279    42A     -0.487974
      43A     -0.483514    44A     -0.476054    45A     -0.473283
      46A     -0.455261    47A     -0.449247    48A     -0.412550
      49A     -0.391777    50A     -0.345908    51A     -0.318525

  @DF-RHF Final Energy:  -921.49269329400136

   => Energetics <=

    Nuclear Repulsion Energy =            828.7524027162916127
    One-Electron Energy =               -2905.6573137320610840
    Two-Electron Energy =                1155.4122177217680019
    Total Energy =                       -921.4926932940013558

  Dipole Moment: [D]
     X:     2.2778      Y:     0.5258      Z:    -0.5938     Total:     2.4120

  Basis Set: (CC-PVDZ AUX)
    Blend: CC-PVDZ-RI
    Molecular point group: c1
  Basis Set: CC-PVDZ
    Blend: CC-PVDZ
  Basis Set: (CC-PVDZ AUX)
    Blend: CC-PVDZ-JKFIT
  Basis Set: (CC-PVDZ AUX)
    Blend: CC-PVDZ-JKFIT
	 Reference Energy          =    -921.4926932940013558 [Eh]
	 Singles Energy            =      -0.0000000000000000 [Eh]
	 Same-Spin Energy          =      -0.4726534375147162 [Eh]
	 Opposite-Spin Energy      =      -1.3177234901462866 [Eh]
	 Correlation Energy        =      -1.7903769276610029 [Eh]
	 Total Energy              =    -923.2830702216623422 [Eh]

	 ================> DF-SCS-MP2 Energies <==================
	-----------------------------------------------------------
	 SCS Same-Spin Scale       =       0.3333333333333333 [-]
	 SCS Opposite-Spin Scale   =       1.2000000000000000 [-]
	 SCS Same-Spin Energy      =      -0.1575511458382387 [Eh]
	 SCS Opposite-Spin Energy  =      -1.5812681881755439 [Eh]
	 SCS Correlation Energy    =      -1.7388193340137827 [Eh]
	 SCS Total Energy          =    -923.2315126280151389 [Eh]
	-----------------------------------------------------------

  -Total Gradient:
     Atom            X                  Y                   Z
    ------   -----------------  -----------------  -----------------
       1       -0.000000335550     0.000011358760     0.000007586061
       2       -0.000052090380    -0.000021544762    -0.000017861030
       3        0.000008129558    -0.000011085021     0.000018480466
       4       -0.000003852848    -0.000002634059     0.000002216847
       5        0.000005294041     0.000009443811    -0.000020114361
       6        0.000004310339     0.000010846131     0.000024465653
       7        0.000057453554     0.000030305908    -0.000016713470
       8       -0.000036536509     0.000030884131    -0.000023335822
       9        0.000060664704    -0.000010347952     0.000009789980
      10       -0.000103012031    -0.000026180666     0.000030267371
      11        0.000026428038     0.000031728667    -0.000039509278
      12        0.000004198993    -0.000048442259     0.000031898060
      13       -0.000020157369     0.000016235492    -0.000006638796
      14       -0.000000637523    -0.000001214870     0.000005073749
      15        0.000039544062     0.000012226242    -0.000011925536
      16       -0.000002961947     0.000001858728    -0.000002527998
      17        0.000001092052    -0.000015271718     0.000020016822
      18       -0.000003848735     0.000001177068     0.000000397498
      19        0.000017044191    -0.000016393369    -0.000009779064
      20       -0.000003968592     0.000001444915    -0.000000256628
      21       -0.000005217008    -0.000001530313    -0.000001393136
      22        0.000004628330    -0.000000347695    -0.000001735893
      23        0.000000560873     0.000002081524    -0.000000197777
      24        0.000002576939    -0.000001984703    -0.000001811416
      25        0.000002750656     0.000002190219     0.000002549027
      26       -0.000002057930    -0.000004804202     0.000001058693

  **** Optimization is complete! (in 4 steps) ****
    Final optimized geometry and variables:
    Molecular point group: c1

  Mulliken Charges: (a.u.)
   Center  Symbol    Alpha    Beta     Spin     Total
       1     C     2.97238  2.97238  0.00000  0.05525
       2     C     3.12419  3.12419  0.00000 -0.24838
       3     C     2.98037  2.98037  0.00000  0.03927
       4     C     3.02910  3.02910  0.00000 -0.05819
       5     C     3.00006  3.00006  0.00000 -0.00013
       6     C     3.05338  3.05338  0.00000 -0.10675
       7     C     3.02799  3.02799  0.00000 -0.05599
       8     C     2.98960  2.98960  0.00000  0.02081
       9     C     2.96200  2.96200  0.00000  0.07600
      10     C     3.08321  3.08321  0.00000 -0.16643
      11     C     2.96265  2.96265  0.00000  0.07471
      12     C     2.99410  2.99410  0.00000  0.01181
      13     H     0.49166  0.49166  0.00000  0.01667
      14     H     0.48565  0.48565  0.00000  0.02869
      15    CL     8.53399  8.53399  0.00000 -0.06799
      16     H     0.48595  0.48595  0.00000  0.02810
      17     H     0.49317  0.49317  0.00000  0.01367
      18     H     0.48738  0.48738  0.00000  0.02523
      19     H     0.47699  0.47699  0.00000  0.04601
      20     H     0.48088  0.48088  0.00000  0.03823
      21     H     0.47903  0.47903  0.00000  0.04194
      22     H     0.48079  0.48079  0.00000  0.03841
      23     H     0.48046  0.48046  0.00000  0.03907
      24     H     0.48413  0.48413  0.00000  0.03175
      25     H     0.47966  0.47966  0.00000  0.04068
      26     H     0.48123  0.48123  0.00000  0.03754

   Total alpha = 51.00000, Total beta = 51.00000, Total charge =  0.00000

    Molecular point group: c1

    Geometry (in Angstrom), charge = 0, multiplicity = 1:

       Center              X                  Y                   Z               Mass
    ------------   -----------------  -----------------  -----------------  -----------------
         C            1.938275359154     0.758172333214    -2.138163557197    12.000000000000
         C            1.584122221087     0.647997201936    -0.670225239479    12.000000000000
         C            2.411765574728     1.530136786096     0.283659181361    12.000000000000
         C            3.675079528274     0.699738466897     0.584768425647    12.000000000000
         C            3.954838918071    -0.073776679095    -0.720014233914    12.000000000000
         C            2.567569404376    -0.340575519211    -1.304024952210    12.000000000000
         C            0.211344081025     0.234817171635    -0.257069352895    12.000000000000
         C            0.036573426753    -0.675260658548     0.806303359789    12.000000000000
         C           -1.242023568671    -1.049515791808     1.241756015596    12.000000000000
         C           -2.368091710237    -0.506393731715     0.603301148588    12.000000000000
         C           -2.224904417758     0.400977966855    -0.456252143018    12.000000000000
         C           -0.936401328059     0.766241106626    -0.875629411286    12.000000000000
         H           -0.820415198445     1.480210547480    -1.697270197543     1.007825032230
         H           -3.112102875260     0.815304749789    -0.941682051597     1.007825032230
         CL          -3.964885460810    -0.970259669323     1.132478236885    34.968852682000
         H           -1.371227751452    -1.759717143711     2.062327084184     1.007825032230
         H            0.917980144183    -1.106135102213     1.293575682599     1.007825032230
         H            2.244003288082    -1.367469001986    -1.498574416223     1.007825032230
         H            1.177621352830     0.457711877369    -2.864350217875     1.007825032230
         H            2.578418752009     1.590901144532    -2.448238886006     1.007825032230
         H            4.507220789209    -1.009177500522    -0.537783038046     1.007825032230
         H            4.561904852918     0.535342517237    -1.413501712618     1.007825032230
         H            3.440074123230    -0.025606183290     1.384033419804     1.007825032230
         H            4.528717638911     1.309044207769     0.926604081355     1.007825032230
         H            1.840487671409     1.771524678541     1.193936049889     1.007825032230
         H            2.675749200514     2.485713549120    -0.204319634916     1.007825032230

*** Psi4 exiting successfully. Buy a developer a beer!
