                               Psi4 1.4 release

  ==> Input File <==

--------------------------------------------------------------------------
memory 32 GB

molecule mol {
1 1
C    0.00000000  0.00000000  0.00000000
C   -0.35513000 -0.11122100  1.46741200
C    0.47297000  0.77068400  2.42094700
C    1.73642500 -0.05941100  2.72233600
C    2.01582300 -0.83421400  1.41804900
C    0.62842600 -1.09956700  0.83390200
H    0.30430700 -2.12628200  0.63941600
H    2.56665900 -1.77040500  1.60151100
H    2.62455300 -0.22655700  0.72463200
H    1.50135800 -0.78417200  3.52203800
H    2.59041400  0.55001100  3.06352500
H   -0.09849900  1.01131200  3.33128000
H    0.73721700  1.72655000  1.93347100
C   -1.72870600 -0.52444200  1.88186000
C   -1.89792200 -1.43278800  2.94795700
C   -3.18018900 -1.80355500  3.37928200
C   -4.31680300 -1.27052000  2.74732500
C   -4.16078300 -0.36515700  1.68563100
C   -2.87496600  0.00617100  1.25940500
H   -2.75356200  0.71807700  0.43660100
H   -5.04154900  0.05450200  1.18975100
H   -5.31770600 -1.56188400  3.07930300
H   -3.29431100 -2.51371600  4.20414200
H   -1.01183000 -1.85819900  3.43188200
H   -0.76087000 -0.29938900 -0.72635300
H    0.64131600  0.83205500 -0.30981000
H   -0.21220963  0.89249413 -0.59244093
}

set scf_type df
set basis cc-pVDZ
set reference rhf

mol.update_geometry()
mol.symmetrize(1e-3)

e, wfn = energy('mp2', return_wfn=True)
oeprop(wfn, "MULLIKEN_CHARGES")
mol.print_out()
print_variables()
--------------------------------------------------------------------------

    Molecular point group: c1
  Charge       = 1
  Multiplicity = 1
  Basis Set: CC-PVDZ
    Blend: CC-PVDZ
  Basis Set: (CC-PVDZ AUX)
    Blend: CC-PVDZ-JKFIT

    Orbital Energies [Eh]
    ---------------------

    Doubly Occupied:

       1A    -11.492524     2A    -11.464755     3A    -11.440871
       4A    -11.395545     5A    -11.391034     6A    -11.387257
       7A    -11.377115     8A    -11.374997     9A    -11.371048
      10A    -11.364360    11A    -11.363602    12A    -11.360840
      13A     -1.407915    14A     -1.274755    15A     -1.249717
      16A     -1.173943    17A     -1.149663    18A     -1.135016
      19A     -1.109057    20A     -0.972003    21A     -0.968606
      22A     -0.950862    23A     -0.916207    24A     -0.875962
      25A     -0.853751    26A     -0.803525    27A     -0.787430
      28A     -0.759015    29A     -0.754058    30A     -0.742604
      31A     -0.721188    32A     -0.704932    33A     -0.677412
      34A     -0.668803    35A     -0.651807    36A     -0.637922
      37A     -0.630288    38A     -0.619224    39A     -0.614091
      40A     -0.608152    41A     -0.582786    42A     -0.457009
      43A     -0.453216

  @DF-RHF Final Energy:  -462.78133033150158

   => Energetics <=

    Nuclear Repulsion Energy =            681.1807464576518214
    One-Electron Energy =               -1962.5344223641748158
    Two-Electron Energy =                 818.5723455750213589
    Total Energy =                       -462.7813303315016356

  Dipole Moment: [D]
     X:     4.3248      Y:     2.3562      Z:    -5.6298     Total:     7.4800

  Basis Set: (CC-PVDZ AUX)
    Blend: CC-PVDZ-RI
	 Reference Energy          =    -462.7813303315015787 [Eh]
	 Singles Energy            =      -0.0000000000000000 [Eh]
	 Same-Spin Energy          =      -0.4305493586455229 [Eh]
	 Opposite-Spin Energy      =      -1.2251667674346716 [Eh]
	 Correlation Energy        =      -1.6557161260801945 [Eh]
	 Total Energy              =    -464.4370464575818005 [Eh]

	 ================> DF-SCS-MP2 Energies <==================
	-----------------------------------------------------------
	 SCS Same-Spin Scale       =       0.3333333333333333 [-]
	 SCS Opposite-Spin Scale   =       1.2000000000000000 [-]
	 SCS Same-Spin Energy      =      -0.1435164528818410 [Eh]
	 SCS Opposite-Spin Energy  =      -1.4702001209216058 [Eh]
	 SCS Correlation Energy    =      -1.6137165738034467 [Eh]
	 SCS Total Energy          =    -464.3950469053050369 [Eh]
	-----------------------------------------------------------

  Mulliken Charges: (a.u.)
   Center  Symbol    Alpha    Beta     Spin     Total
       1     C     2.97066  2.97066  0.00000  0.05868
       2     C     3.15065  3.15065  0.00000 -0.30130
       3     C     2.97138  2.97138  0.00000  0.05724
       4     C     3.02471  3.02471  0.00000 -0.04941
       5     C     2.99832  2.99832  0.00000  0.00336
       6     C     2.98526  2.98526  0.00000  0.02948
       7     H     0.44412  0.44412  0.00000  0.11176
       8     H     0.45351  0.45351  0.00000  0.09297
       9     H     0.46819  0.46819  0.00000  0.06362
      10     H     0.46559  0.46559  0.00000  0.06883
      11     H     0.46221  0.46221  0.00000  0.07558
      12     H     0.45290  0.45290  0.00000  0.09419
      13     H     0.47903  0.47903  0.00000  0.04194
      14     C     3.03734  3.03734  0.00000 -0.07469
      15     C     2.99961  2.99961  0.00000  0.00077
      16     C     2.99905  2.99905  0.00000  0.00190
      17     C     3.00593  3.00593  0.00000 -0.01187
      18     C     2.99974  2.99974  0.00000  0.00053
      19     C     3.01370  3.01370  0.00000 -0.02739
      20     H     0.49758  0.49758  0.00000  0.00484
      21     H     0.46956  0.46956  0.00000  0.06089
      22     H     0.46736  0.46736  0.00000  0.06528
      23     H     0.46841  0.46841  0.00000  0.06317
      24     H     0.48339  0.48339  0.00000  0.03321
      25     H     0.42334  0.42334  0.00000  0.15331
      26     H     0.41694  0.41694  0.00000  0.16612
      27     H     0.39151  0.39151  0.00000  0.21699

   Total alpha = 43.00000, Total beta = 43.00000, Total charge =  1.00000

    Molecular point group: c1

    Geometry (in Angstrom), charge = 1, multiplicity = 1:

       Center              X                  Y                   Z               Mass
    ------------   -----------------  -----------------  -----------------  -----------------
         C            1.077907759776     0.541020428307    -1.878474830315    12.000000000000
         C            0.722777759776     0.429799428307    -0.411062830315    12.000000000000
         C            1.550877759776     1.311704428307     0.542472169685    12.000000000000
         C            2.814332759776     0.481609428307     0.843861169685    12.000000000000
         C            3.093730759776    -0.293193571693    -0.460425830315    12.000000000000
         C            1.706333759776    -0.558546571693    -1.044572830315    12.000000000000
         H            1.382214759776    -1.585261571693    -1.239058830315     1.007825032230
         H            3.644566759776    -1.229384571693    -0.276963830315     1.007825032230
         H            3.702460759776     0.314463428307    -1.153842830315     1.007825032230
         H            2.579265759776    -0.243151571693     1.643563169685     1.007825032230
         H            3.668321759776     1.091031428307     1.185050169685     1.007825032230
         H            0.979408759776     1.552332428307     1.452805169685     1.007825032230
         H            1.815124759776     2.267570428307     0.054996169685     1.007825032230
         C           -0.650798240224     0.016578428307     0.003385169685    12.000000000000
         C           -0.820014240224    -0.891767571693     1.069482169685    12.000000000000
         C           -2.102281240224    -1.262534571693     1.500807169685    12.000000000000
         C           -3.238895240224    -0.729499571693     0.868850169685    12.000000000000
         C           -3.082875240224     0.175863428307    -0.192843830315    12.000000000000
         C           -1.797058240224     0.547191428307    -0.619069830315    12.000000000000
         H           -1.675654240224     1.259097428307    -1.441873830315     1.007825032230
         H           -3.963641240224     0.595522428307    -0.688723830315     1.007825032230
         H           -4.239798240224    -1.020863571693     1.200828169685     1.007825032230
         H           -2.216403240224    -1.972695571693     2.325667169685     1.007825032230
         H            0.066077759776    -1.317178571693     1.553407169685     1.007825032230
         H            0.317037759776     0.241631428307    -2.604827830315     1.007825032230
         H            1.719223759776     1.373075428307    -2.188284830315     1.007825032230
         H            0.865698129776     1.433514558307    -2.470915760315     1.007825032230

*** Psi4 exiting successfully. Buy a developer a beer!
