                               Psi4 1.4 release

  ==> Input File <==

--------------------------------------------------------------------------
memory 62 GB

molecule mol {
0 1
 C     1.511290    -0.280966    -0.092593
 C    -0.000000     0.000000     0.000000
 C    -0.605968    -1.226439    -0.664954
 C     0.319060    -1.848819    -1.451355
 C     1.653820    -1.134973    -1.365322
 C    -2.027094    -1.583009    -0.507457
 C    -2.438238    -2.928025    -0.366876
 C    -3.794208    -3.253627    -0.211477
 C    -4.766046    -2.240264    -0.182231
 C    -4.369571    -0.897483    -0.299270
 C    -3.014139    -0.572542    -0.452922
 C     0.120138    -2.993149    -2.399423
 H    -2.715369     0.476287    -0.545440
 H    -5.118805    -0.100426    -0.268581
Cl    -6.447141    -2.643405     0.015246
 H    -4.091097    -4.301038    -0.099616
 H    -1.681648    -3.717845    -0.347819
 H     1.812305    -0.886836     0.778541
 H     2.127353     0.631886    -0.103726
 H     2.509857    -1.831293    -1.328975
 H     1.794964    -0.502471    -2.264944
 H    -0.944311    -3.224044    -2.552012
 H     0.568816    -2.749556    -3.378502
 H     0.625600    -3.906462    -2.037287
 H    -0.354002     0.144380     1.034324
 H    -0.267853     0.913064    -0.567140
}

set scf_type df
set basis cc-pVDZ
set reference rhf

mol.update_geometry()
mol.symmetrize(1e-3)

e, wfn = optimize('CCSD', return_wfn=True)
oeprop(wfn, "MULLIKEN_CHARGES")
mol.print_out()
print_variables()
--------------------------------------------------------------------------

    Molecular point group: c1
  Charge       = 0
  Multiplicity = 1
  Basis Set: CC-PVDZ
    Blend: CC-PVDZ
  Basis Set: (CC-PVDZ AUX)
    Blend: CC-PVDZ-JKFIT
  @DF-RHF Final Energy:  -921.51708687931887
    Total Energy =                       -921.5170868793188674
      * MP2 total energy                      = -923.302763450891348
      * CCSD total energy                     = -923.391749710385284
    Molecular point group: c1
  Basis Set: CC-PVDZ
    Blend: CC-PVDZ
  Basis Set: (CC-PVDZ AUX)
    Blend: CC-PVDZ-JKFIT
  @DF-RHF Final Energy:  -921.51801424083567
    Total Energy =                       -921.5180142408355550
      * MP2 total energy                      = -923.302684292302047
      * CCSD total energy                     = -923.392239802441736
  Basis Set: CC-PVDZ
    Blend: CC-PVDZ
  Basis Set: (CC-PVDZ AUX)
    Blend: CC-PVDZ-JKFIT
  @DF-RHF Final Energy:  -921.51819048643767
    Total Energy =                       -921.5181904864375610
      * MP2 total energy                      = -923.302633225230579
      * CCSD total energy                     = -923.392289747772452
    Blend: CC-PVDZ
  Basis Set: (CC-PVDZ AUX)
    Blend: CC-PVDZ-JKFIT
  @DF-RHF Final Energy:  -921.51824251476535
    Total Energy =                       -921.5182425147654612
      * MP2 total energy                      = -923.302619469987349
      * CCSD total energy                     = -923.392295475331821
  Basis Set: CC-PVDZ
    Blend: CC-PVDZ
  Basis Set: (CC-PVDZ AUX)
    Blend: CC-PVDZ-JKFIT
  @DF-RHF Final Energy:  -921.51825672348150
    Total Energy =                       -921.5182567234814996
      * MP2 total energy                      = -923.302611386806120
      * CCSD total energy                     = -923.392296911121321
  Multiplicity = 1
  Basis Set: CC-PVDZ
    Blend: CC-PVDZ
  Basis Set: (CC-PVDZ AUX)
    Blend: CC-PVDZ-JKFIT

    Orbital Energies [Eh]
    ---------------------

    Doubly Occupied:

       1A   -104.830934     2A    -11.305729     3A    -11.258784
       4A    -11.257343     5A    -11.257206     6A    -11.253648
       7A    -11.253396     8A    -11.242828     9A    -11.237250
      10A    -11.236681    11A    -11.235337    12A    -11.234979
      13A    -11.231942    14A    -10.557617    15A     -8.025245
      16A     -8.021848    17A     -8.021741    18A     -1.184978
      19A     -1.148897    20A     -1.109675    21A     -1.026795
      22A     -1.017908    23A     -1.008749    24A     -0.942780
      25A     -0.905175    26A     -0.843406    27A     -0.817197
      28A     -0.785943    29A     -0.724185    30A     -0.659167
      31A     -0.645378    32A     -0.643092    33A     -0.640552
      34A     -0.618897    35A     -0.595872    36A     -0.575980
      37A     -0.569764    38A     -0.546637    39A     -0.540200
      40A     -0.535305    41A     -0.518519    42A     -0.503231
      43A     -0.486175    44A     -0.482285    45A     -0.481014
      46A     -0.467112    47A     -0.457355    48A     -0.449558
      49A     -0.362346    50A     -0.346430    51A     -0.298422

  @DF-RHF Final Energy:  -921.51827055395006

   => Energetics <=

    Nuclear Repulsion Energy =            811.4578762072939071
    One-Electron Energy =               -2871.1493185378167254
    Two-Electron Energy =                1138.1731717765728717
    Total Energy =                       -921.5182705539500603

  Dipole Moment: [D]
     X:     2.4968      Y:     0.3977      Z:    -0.5118     Total:     2.5796

      * MP2 total energy                      = -923.302604888625183
      * CCSD total energy                     = -923.392297651088711
    Molecular point group: c1

  -Total gradient:
     Atom            X                  Y                   Z
    ------   -----------------  -----------------  -----------------
       1        0.000023798336    -0.000034012153     0.000048315709
       2       -0.000017129011     0.000050608485    -0.000102524196
       3       -0.000047118078    -0.000030472345     0.000086348619
       4        0.000038112746    -0.000045742446     0.000001418186
       5       -0.000026426947     0.000063041241    -0.000049167730
       6        0.000020732615    -0.000002309191     0.000008314344
       7        0.000011593577    -0.000064896851    -0.000012352380
       8       -0.000043582001     0.000049139749    -0.000001193066
       9        0.000105082925     0.000027132802    -0.000015379613
      10       -0.000015131505    -0.000066359743     0.000015019107
      11       -0.000028563537     0.000076433290    -0.000012004174
      12        0.000021969118     0.000034588113    -0.000051489049
      13        0.000001855721    -0.000030561875     0.000004712848
      14       -0.000003305251     0.000013033069     0.000001153651
      15       -0.000032085661    -0.000007035418     0.000003550916
      16        0.000002923914    -0.000010417974    -0.000000119923
      17       -0.000008002004     0.000031295899     0.000003283978
      18        0.000015455721     0.000016340504    -0.000000743117
      19       -0.000002534882     0.000000786136    -0.000002668101
      20       -0.000000194134    -0.000018548404     0.000007804548
      21        0.000012994594    -0.000015691209     0.000006033276
      22       -0.000010920756    -0.000007568137    -0.000002973223
      23       -0.000001343671    -0.000011604130     0.000011671022
      24       -0.000011881917    -0.000003292772     0.000018948483
      25       -0.000011096429    -0.000022361025     0.000007406672
      26        0.000004796499     0.000008474373     0.000026633201

  **** Optimization is complete! (in 6 steps) ****
    Final optimized geometry and variables:
    Molecular point group: c1

  Mulliken Charges: (a.u.)
   Center  Symbol    Alpha    Beta     Spin     Total
       1     C     3.02142  3.02142  0.00000 -0.04284
       2     C     2.99139  2.99139  0.00000  0.01723
       3     C     3.03515  3.03515  0.00000 -0.07029
       4     C     3.11087  3.11087  0.00000 -0.22173
       5     C     2.99309  2.99309  0.00000  0.01383
       6     C     3.04628  3.04628  0.00000 -0.09256
       7     C     2.99845  2.99845  0.00000  0.00309
       8     C     2.95748  2.95748  0.00000  0.08504
       9     C     3.09050  3.09050  0.00000 -0.18099
      10     C     2.95726  2.95726  0.00000  0.08549
      11     C     2.99838  2.99838  0.00000  0.00324
      12     C     2.98880  2.98880  0.00000  0.02240
      13     H     0.49281  0.49281  0.00000  0.01437
      14     H     0.48635  0.48635  0.00000  0.02730
      15    CL     8.53253  8.53253  0.00000 -0.06506
      16     H     0.48612  0.48612  0.00000  0.02775
      17     H     0.49161  0.49161  0.00000  0.01678
      18     H     0.48155  0.48155  0.00000  0.03691
      19     H     0.48679  0.48679  0.00000  0.02643
      20     H     0.48431  0.48431  0.00000  0.03138
      21     H     0.47953  0.47953  0.00000  0.04095
      22     H     0.47549  0.47549  0.00000  0.04903
      23     H     0.47815  0.47815  0.00000  0.04371
      24     H     0.47583  0.47583  0.00000  0.04834
      25     H     0.48139  0.48139  0.00000  0.03723
      26     H     0.47850  0.47850  0.00000  0.04301

   Total alpha = 51.00000, Total beta = 51.00000, Total charge = -0.00000

    Molecular point group: c1

    Geometry (in Angstrom), charge = 0, multiplicity = 1:

       Center              X                  Y                   Z               Mass
    ------------   -----------------  -----------------  -----------------  -----------------
         C            3.823547405760     1.472665102081     0.472472795493    12.000000000000
         C            2.305739047530     1.736769821330     0.587586803795    12.000000000000
         C            1.696536791974     0.521266099416    -0.106148668006    12.000000000000
         C            2.614730679798    -0.099217686983    -0.889515515246    12.000000000000
         C            3.965037315458     0.595971402249    -0.790971951830    12.000000000000
         C            0.260038333011     0.175106626076     0.047914339889    12.000000000000
         C           -0.164374642631    -1.160090758190     0.214656606681    12.000000000000
         C           -1.521502315800    -1.479264878092     0.369551239778    12.000000000000
         C           -2.473957914822    -0.451577144308     0.367863908083    12.000000000000
         C           -2.080808361536     0.886191080908     0.222861560394    12.000000000000
         C           -0.720757655240     1.190007133330     0.071171299231    12.000000000000
         C            2.420487945465    -1.248076520820    -1.843417233720    12.000000000000
         H           -0.420812670019     2.236643245329    -0.041536137311     1.007825032230
         H           -2.832582983668     1.679868949026     0.230213177452     1.007825032230
         CL          -4.170436991122    -0.840403806480     0.562319610671    34.968852682000
         H           -1.838543550655    -2.517144058843     0.501993581515     1.007825032230
         H            0.579227644489    -1.961831332824     0.247937472250     1.007825032230
         H            4.153218798387     0.891916802860     1.352565664226     1.007825032230
         H            4.425009663111     2.396118774560     0.433872469413     1.007825032230
         H            4.806672189360    -0.118087912244    -0.728811063169     1.007825032230
         H            4.134717527107     1.209064167707    -1.699891108836     1.007825032230
         H            1.356911055241    -1.482246886496    -2.005369866118     1.007825032230
         H            2.875132589896    -1.003988143135    -2.821297737406     1.007825032230
         H            2.926263184337    -2.160568985581    -1.475035795889     1.007825032230
         H            1.965002647500     1.846259580261     1.632260080362     1.007825032230
         H            2.019607967759     2.666136507886     0.054915351525     1.007825032230

*** Psi4 exiting successfully. Buy a developer a beer!
