                               Psi4 1.4 release

  ==> Input File <==

--------------------------------------------------------------------------
molecule mol {
0 1
 C     0.355130     0.111221    -1.467412
 C    -0.000000    -0.000000     0.000000
 C     0.828100     0.881905     0.953535
 C     2.091555     0.051810     1.254924
 C     2.370953    -0.722993    -0.049363
 C     0.983556    -0.988346    -0.633510
 C    -1.373576    -0.413221     0.414448
 C    -1.542792    -1.321567     1.480545
 C    -2.825059    -1.692334     1.911870
 C    -3.961673    -1.159299     1.279913
 C    -3.805653    -0.253936     0.218219
 C    -2.519836     0.117392    -0.208007
 H    -2.398432     0.829298    -1.030811
 H    -4.686419     0.165723    -0.277661
 O    -5.224199    -1.526822     1.698665
 H    -2.939181    -2.402495     2.736730
 H    -0.656700    -1.746978     1.964470
 H     0.659437    -2.015061    -0.827996
 H    -0.405740    -0.188168    -2.193765
 H     0.996446     0.943276    -1.777222
 H     2.921789    -1.659184     0.134099
 H     2.979683    -0.115336    -0.742780
 H     1.856488    -0.672951     2.054626
 H     2.945544     0.661232     1.596113
 H     0.256631     1.122533     1.863868
 H     1.092347     1.837771     0.466059
 C    -6.184001    -0.867876     0.921124
 H    -7.180299    -1.157899     1.251575
 H    -6.063944     0.208814     1.031793
 H    -6.054349    -1.141975    -0.124811
}

set scf_type df
set basis cc-pVTZ
set reference rhf

mol.update_geometry()
mol.symmetrize(1e-3)

e, wfn = optimize('mp2', return_wfn=True)
oeprop(wfn, "MULLIKEN_CHARGES")
mol.print_out()
print_variables()
--------------------------------------------------------------------------

    Molecular point group: c1
  Charge       = 0
  Multiplicity = 1
  Basis Set: CC-PVTZ
    Blend: CC-PVTZ
  Basis Set: (CC-PVTZ AUX)
    Blend: CC-PVTZ-JKFIT
  @DF-RHF Final Energy:  -576.59239026909063
    Total Energy =                       -576.5923902690906289
  Basis Set: (CC-PVTZ AUX)
    Blend: CC-PVTZ-RI
    Molecular point group: c1
  Basis Set: CC-PVTZ
    Blend: CC-PVTZ
  Basis Set: (CC-PVTZ AUX)
    Blend: CC-PVTZ-JKFIT
  Basis Set: (CC-PVTZ AUX)
    Blend: CC-PVTZ-JKFIT
	 Reference Energy          =    -576.5923902690906289 [Eh]
	 Singles Energy            =      -0.0000000000000000 [Eh]
	 Same-Spin Energy          =      -0.6249174626170281 [Eh]
	 Opposite-Spin Energy      =      -1.9678068405700935 [Eh]
	 Correlation Energy        =      -2.5927243031871217 [Eh]
	 Total Energy              =    -579.1851145722777119 [Eh]
	 SCS Total Energy          =    -579.1620642986471239 [Eh]
  @DF-RHF Final Energy:  -576.60683838716602
    Total Energy =                       -576.6068383871659080
  @DF-RHF Final Energy:  -576.61127676531305
    Total Energy =                       -576.6112767653130504
  @DF-RHF Final Energy:  -576.61169260449503
    Total Energy =                       -576.6116926044949196
  @DF-RHF Final Energy:  -576.61099646988771
    Total Energy =                       -576.6109964698875956
  @DF-RHF Final Energy:  -576.61128532317832
    Total Energy =                       -576.6112853231784356
  @DF-RHF Final Energy:  -576.61106044016913
    Total Energy =                       -576.6110604401692399
  @DF-RHF Final Energy:  -576.61093338351986
    Total Energy =                       -576.6109333835199777
  @DF-RHF Final Energy:  -576.61079263811780
    Total Energy =                       -576.6107926381178004
  Multiplicity = 1
  Basis Set: CC-PVTZ
    Blend: CC-PVTZ
  Basis Set: (CC-PVTZ AUX)
    Blend: CC-PVTZ-JKFIT

    Orbital Energies [Eh]
    ---------------------

    Doubly Occupied:

       1A    -20.579810     2A    -11.290175     3A    -11.277865
       4A    -11.227400     5A    -11.227160     6A    -11.226230
       7A    -11.222856     8A    -11.222316     9A    -11.219488
      10A    -11.218108    11A    -11.216463    12A    -11.213285
      13A    -11.212769    14A    -11.212104    15A     -1.410018
      16A     -1.187963    17A     -1.140659    18A     -1.040819
      19A     -1.017429    20A     -1.015601    21A     -0.961742
      22A     -0.935769    23A     -0.848864    24A     -0.821592
      25A     -0.811397    26A     -0.777084    27A     -0.741749
      28A     -0.716019    29A     -0.684267    30A     -0.665709
      31A     -0.655073    32A     -0.634401    33A     -0.621527
      34A     -0.597237    35A     -0.587411    36A     -0.578706
      37A     -0.569079    38A     -0.566352    39A     -0.542607
      40A     -0.523890    41A     -0.520528    42A     -0.483866
      43A     -0.482503    44A     -0.479706    45A     -0.471278
      46A     -0.468948    47A     -0.454048    48A     -0.405918
      49A     -0.387238    50A     -0.336873    51A     -0.294884

  @DF-RHF Final Energy:  -576.61080776568804

   => Energetics <=

    Nuclear Repulsion Energy =            868.1830296340486939
    One-Electron Energy =               -2505.5781134801745793
    Two-Electron Energy =                1060.7842760804380760
    Total Energy =                       -576.6108077656879232

  Dipole Moment: [D]
     X:    -0.4280      Y:     0.4549      Z:    -0.8865     Total:     1.0844

  Basis Set: (CC-PVTZ AUX)
    Blend: CC-PVTZ-RI
    Molecular point group: c1
  Basis Set: CC-PVTZ
    Blend: CC-PVTZ
  Basis Set: (CC-PVTZ AUX)
    Blend: CC-PVTZ-JKFIT
  Basis Set: (CC-PVTZ AUX)
    Blend: CC-PVTZ-JKFIT
	 Reference Energy          =    -576.6108077656880369 [Eh]
	 Singles Energy            =      -0.0000000000000000 [Eh]
	 Same-Spin Energy          =      -0.6239011845574384 [Eh]
	 Opposite-Spin Energy      =      -1.9635451803078623 [Eh]
	 Correlation Energy        =      -2.5874463648653006 [Eh]
	 Total Energy              =    -579.1982541305533232 [Eh]

	 ================> DF-SCS-MP2 Energies <==================
	-----------------------------------------------------------
	 SCS Same-Spin Scale       =       0.3333333333333333 [-]
	 SCS Opposite-Spin Scale   =       1.2000000000000000 [-]
	 SCS Same-Spin Energy      =      -0.2079670615191461 [Eh]
	 SCS Opposite-Spin Energy  =      -2.3562542163694347 [Eh]
	 SCS Correlation Energy    =      -2.5642212778885809 [Eh]
	 SCS Total Energy          =    -579.1750290435766146 [Eh]
	-----------------------------------------------------------

  -Total Gradient:
     Atom            X                  Y                   Z
    ------   -----------------  -----------------  -----------------
       1        0.000024647841     0.000087248284     0.000005387733
       2        0.000133872375    -0.000089136462    -0.000112280993
       3       -0.000017640250     0.000025041106     0.000038917448
       4       -0.000010072275    -0.000021489216    -0.000018552235
       5        0.000024230950     0.000025054690     0.000003198646
       6       -0.000114624667    -0.000010146917     0.000042604852
       7       -0.000115823868     0.000036541569    -0.000009267998
       8        0.000049507713     0.000035994826     0.000022448753
       9       -0.000049316895     0.000019312760     0.000046021612
      10        0.000141954443    -0.000084435143    -0.000165912706
      11       -0.000069065085    -0.000013001868     0.000048701139
      12        0.000068763684     0.000012017624     0.000024644109
      13       -0.000003929827    -0.000005077354     0.000017572808
      14        0.000012202444     0.000002132103     0.000013670288
      15       -0.000044651275     0.000012920571     0.000061083343
      16       -0.000003396175     0.000005589794    -0.000016903758
      17       -0.000012470937     0.000000510630    -0.000016507478
      18        0.000031057284    -0.000008434792     0.000016981350
      19        0.000011872431    -0.000028523676     0.000016374711
      20       -0.000008923474    -0.000002363426    -0.000004108532
      21       -0.000007316039     0.000009303177    -0.000004224830
      22        0.000004258128     0.000000416300    -0.000002160313
      23        0.000004505969     0.000003758926     0.000003400149
      24       -0.000004746966    -0.000009726068    -0.000007315823
      25        0.000001731625    -0.000009803473    -0.000010266655
      26       -0.000011591161    -0.000011439057     0.000001804286
      27       -0.000022623112     0.000032178948     0.000011453903
      28       -0.000008833084    -0.000000666608    -0.000004259727
      29       -0.000007287696    -0.000006893124    -0.000002914443
      30        0.000003707897    -0.000006884114     0.000000410355

  **** Optimization is complete! (in 10 steps) ****
    Final optimized geometry and variables:
    Molecular point group: c1

  Mulliken Charges: (a.u.)
   Center  Symbol    Alpha    Beta     Spin     Total
       1     C     3.21336  3.21336  0.00000 -0.42671
       2     C     2.97864  2.97864  0.00000  0.04272
       3     C     3.14579  3.14579  0.00000 -0.29158
       4     C     3.11788  3.11788  0.00000 -0.23576
       5     C     3.13740  3.13740  0.00000 -0.27480
       6     C     3.05074  3.05074  0.00000 -0.10148
       7     C     2.94328  2.94328  0.00000  0.11343
       8     C     3.07755  3.07755  0.00000 -0.15510
       9     C     3.09892  3.09892  0.00000 -0.19784
      10     C     2.89224  2.89224  0.00000  0.21552
      11     C     3.12555  3.12555  0.00000 -0.25110
      12     C     3.08656  3.08656  0.00000 -0.17312
      13     H     0.42301  0.42301  0.00000  0.15397
      14     H     0.42453  0.42453  0.00000  0.15094
      15     O     4.10836  4.10836  0.00000 -0.21672
      16     H     0.42458  0.42458  0.00000  0.15085
      17     H     0.42234  0.42234  0.00000  0.15532
      18     H     0.42451  0.42451  0.00000  0.15097
      19     H     0.42830  0.42830  0.00000  0.14341
      20     H     0.43584  0.43584  0.00000  0.12832
      21     H     0.43327  0.43327  0.00000  0.13347
      22     H     0.43793  0.43793  0.00000  0.12414
      23     H     0.44103  0.44103  0.00000  0.11795
      24     H     0.43462  0.43462  0.00000  0.13077
      25     H     0.43148  0.43148  0.00000  0.13705
      26     H     0.43685  0.43685  0.00000  0.12631
      27     C     3.09575  3.09575  0.00000 -0.19149
      28     H     0.42841  0.42841  0.00000  0.14319
      29     H     0.45056  0.45056  0.00000  0.09887
      30     H     0.45074  0.45074  0.00000  0.09853

   Total alpha = 51.00000, Total beta = 51.00000, Total charge = -0.00000

    Molecular point group: c1

    Geometry (in Angstrom), charge = 0, multiplicity = 1:

       Center              X                  Y                   Z               Mass
    ------------   -----------------  -----------------  -----------------  -----------------
         C            2.046242723806     0.620457332605    -1.886842368099    12.000000000000
         C            1.590631057324     0.498345117587    -0.467107730111    12.000000000000
         C            2.424413205241     1.268682774411     0.551924614814    12.000000000000
         C            3.573023757945     0.325493097479     0.906380688480    12.000000000000
         C            3.867838525690    -0.425952127169    -0.392540399399    12.000000000000
         C            2.515898686281    -0.543769711387    -1.064743978786    12.000000000000
         C            0.184389447026     0.192674479085    -0.148263918527    12.000000000000
         C           -0.123371105095    -0.514055423520     1.016545883933    12.000000000000
         C           -1.428273177966    -0.806231075644     1.355285167811    12.000000000000
         C           -2.474076917606    -0.397919884673     0.530363345005    12.000000000000
         C           -2.190694996286     0.308699298400    -0.631223402309    12.000000000000
         C           -0.868714097230     0.597499647051    -0.954031809625    12.000000000000
         H           -0.661199735355     1.159800393108    -1.849806242611     1.007825032230
         H           -2.975432854018     0.641547073831    -1.284418944733     1.007825032230
         O           -3.722276581240    -0.735003321213     0.945315985574    15.994914619570
         H           -1.665723402384    -1.355079369423     2.250601333588     1.007825032230
         H            0.675717826020    -0.847010698832     1.660363497902     1.007825032230
         H            2.121032149213    -1.514863891168    -1.311845672977     1.007825032230
         H            1.331785566563     0.412617249601    -2.665186516523     1.007825032230
         H            2.765727286610     1.390585531900    -2.116568079466     1.007825032230
         H            4.313385452496    -1.398255703551    -0.209645779226     1.007825032230
         H            4.560586214572     0.138667924794    -1.014391268079     1.007825032230
         H            3.218526841039    -0.389654965732     1.645999848619     1.007825032230
         H            4.439048858749     0.832684727235     1.322082500798     1.007825032230
         H            1.828536434423     1.540009239373     1.417321366519     1.007825032230
         H            2.803581947532     2.189949240053     0.112511848343     1.007825032230
         C           -4.788016988466    -0.322825072728     0.117054387801    12.000000000000
         H           -5.692814719229    -0.673198678267     0.595011289352     1.007825032230
         H           -4.824270709962     0.760945522745     0.027511651090     1.007825032230
         H           -4.711372412361    -0.762249530319    -0.875429678021     1.007825032230

*** Psi4 exiting successfully. Buy a developer a beer!
