                               Psi4 1.4 release

  ==> Input File <==

--------------------------------------------------------------------------
molecule mol {
0 1
 C     1.511290    -0.280966    -0.092593
 C    -0.000000     0.000000     0.000000
 C    -0.605968    -1.226439    -0.664954
 C     0.319060    -1.848819    -1.451355
 C     1.653820    -1.134973    -1.365322
 C    -2.027094    -1.583009    -0.507457
 C    -2.438238    -2.928025    -0.366876
 C    -3.794208    -3.253627    -0.211477
 C    -4.766046    -2.240264    -0.182231
 C    -4.369571    -0.897483    -0.299270
 C    -3.014139    -0.572542    -0.452922
 C     0.120138    -2.993149    -2.399423
 H    -2.715369     0.476287    -0.545440
 H    -5.118805    -0.100426    -0.268581
Cl    -6.447141    -2.643405     0.015246
 H    -4.091097    -4.301038    -0.099616
 H    -1.681648    -3.717845    -0.347819
 H     1.812305    -0.886836     0.778541
 H     2.127353     0.631886    -0.103726
 H     2.509857    -1.831293    -1.328975
 H     1.794964    -0.502471    -2.264944
 H    -0.944311    -3.224044    -2.552012
 H     0.568816    -2.749556    -3.378502
 H     0.625600    -3.906462    -2.037287
 H    -0.354002     0.144380     1.034324
 H    -0.267853     0.913064    -0.567140
}

set scf_type df
set basis cc-pVDZ
set reference rhf

mol.update_geometry()
mol.symmetrize(1e-3)

e, wfn = optimize('mp2', return_wfn=True)
oeprop(wfn, "MULLIKEN_CHARGES")
mol.print_out()
print_variables()
--------------------------------------------------------------------------

    Molecular point group: c1
  Charge       = 0
  Multiplicity = 1
  Basis Set: CC-PVDZ
    Blend: CC-PVDZ
  Basis Set: (CC-PVDZ AUX)
    Blend: CC-PVDZ-JKFIT
  @DF-RHF Final Energy:  -921.51708687931193
    Total Energy =                       -921.5170868793120462
  Basis Set: (CC-PVDZ AUX)
    Blend: CC-PVDZ-RI
    Molecular point group: c1
  Basis Set: CC-PVDZ
    Blend: CC-PVDZ
  Basis Set: (CC-PVDZ AUX)
    Blend: CC-PVDZ-JKFIT
  Basis Set: (CC-PVDZ AUX)
    Blend: CC-PVDZ-JKFIT
	 Reference Energy          =    -921.5170868793119325 [Eh]
	 Singles Energy            =      -0.0000000000000000 [Eh]
	 Same-Spin Energy          =      -0.4692427216966569 [Eh]
	 Opposite-Spin Energy      =      -1.3153364249600599 [Eh]
	 Correlation Energy        =      -1.7845791466567169 [Eh]
	 Total Energy              =    -923.3016660259686432 [Eh]
	 SCS Total Energy          =    -923.2519048298295274 [Eh]
  @DF-RHF Final Energy:  -921.51759523632700
    Total Energy =                       -921.5175952363269971
  @DF-RHF Final Energy:  -921.51758199841595
    Total Energy =                       -921.5175819984158352
  Multiplicity = 1
  Basis Set: CC-PVDZ
    Blend: CC-PVDZ
  Basis Set: (CC-PVDZ AUX)
    Blend: CC-PVDZ-JKFIT

    Orbital Energies [Eh]
    ---------------------

    Doubly Occupied:

       1A   -104.830891     2A    -11.305086     3A    -11.257905
       4A    -11.256965     5A    -11.256877     6A    -11.253281
       7A    -11.253082     8A    -11.242864     9A    -11.236340
      10A    -11.235824    11A    -11.234328    12A    -11.234125
      13A    -11.230991    14A    -10.557735    15A     -8.025376
      16A     -8.021961    17A     -8.021855    18A     -1.185524
      19A     -1.151491    20A     -1.110622    21A     -1.027111
      22A     -1.019139    23A     -1.010345    24A     -0.942643
      25A     -0.905352    26A     -0.843334    27A     -0.817836
      28A     -0.785694    29A     -0.725337    30A     -0.660204
      31A     -0.645935    32A     -0.644789    33A     -0.641482
      34A     -0.619459    35A     -0.596019    36A     -0.576008
      37A     -0.570429    38A     -0.547476    39A     -0.540939
      40A     -0.535473    41A     -0.519132    42A     -0.503110
      43A     -0.486719    44A     -0.483969    45A     -0.481618
      46A     -0.468186    47A     -0.457831    48A     -0.449362
      49A     -0.363186    50A     -0.346344    51A     -0.294560

  @DF-RHF Final Energy:  -921.51757327833411

   => Energetics <=

    Nuclear Repulsion Energy =            813.2948365729853322
    One-Electron Energy =               -2874.8005264126081784
    Two-Electron Energy =                1139.9881165612887344
    Total Energy =                       -921.5175732783341118

  Dipole Moment: [D]
     X:     2.4827      Y:     0.4151      Z:    -0.5363     Total:     2.5737

  Basis Set: (CC-PVDZ AUX)
    Blend: CC-PVDZ-RI
    Molecular point group: c1
  Basis Set: CC-PVDZ
    Blend: CC-PVDZ
  Basis Set: (CC-PVDZ AUX)
    Blend: CC-PVDZ-JKFIT
  Basis Set: (CC-PVDZ AUX)
    Blend: CC-PVDZ-JKFIT
	 Reference Energy          =    -921.5175732783341118 [Eh]
	 Singles Energy            =      -0.0000000000000000 [Eh]
	 Same-Spin Energy          =      -0.4692108595429517 [Eh]
	 Opposite-Spin Energy      =      -1.3150889680337450 [Eh]
	 Correlation Energy        =      -1.7842998275766966 [Eh]
	 Total Energy              =    -923.3018731059107722 [Eh]

	 ================> DF-SCS-MP2 Energies <==================
	-----------------------------------------------------------
	 SCS Same-Spin Scale       =       0.3333333333333333 [-]
	 SCS Opposite-Spin Scale   =       1.2000000000000000 [-]
	 SCS Same-Spin Energy      =      -0.1564036198476506 [Eh]
	 SCS Opposite-Spin Energy  =      -1.5781067616404940 [Eh]
	 SCS Correlation Energy    =      -1.7345103814881446 [Eh]
	 SCS Total Energy          =    -923.2520836598222331 [Eh]
	-----------------------------------------------------------

  -Total Gradient:
     Atom            X                  Y                   Z
    ------   -----------------  -----------------  -----------------
       1       -0.000001027753     0.000002433616     0.000008001247
       2       -0.000003793215    -0.000005938864     0.000009683818
       3        0.000016194541     0.000013300175    -0.000010621611
       4       -0.000005472360     0.000004489739    -0.000039837264
       5        0.000002947850    -0.000020304668     0.000013206926
       6        0.000017733626     0.000015149880    -0.000003301753
       7       -0.000040559235     0.000056335726     0.000023376885
       8        0.000045716540    -0.000045456092     0.000001037380
       9       -0.000072244511    -0.000018935460     0.000017314656
      10        0.000022238244     0.000059348836    -0.000008232258
      11        0.000012709829    -0.000066120317     0.000004856271
      12       -0.000010768710    -0.000013851245     0.000005468739
      13       -0.000012819891     0.000023635564    -0.000005314793
      14       -0.000001924784    -0.000011351216    -0.000003067632
      15        0.000021586323     0.000006625365    -0.000006736275
      16       -0.000006312233     0.000009226197    -0.000001769229
      17        0.000009528846    -0.000024789028    -0.000006096600
      18       -0.000004230828     0.000003260473     0.000003009830
      19       -0.000000553298     0.000000488131     0.000000289542
      20        0.000003363207     0.000004556170     0.000002816610
      21       -0.000006885060    -0.000004789262     0.000000165301
      22        0.000006211874     0.000000806930     0.000005362578
      23       -0.000005470827     0.000005201246    -0.000008100041
      24        0.000013531537     0.000006696323    -0.000004610341
      25        0.000000039457     0.000000712288     0.000000667918
      26        0.000000260928    -0.000000730520     0.000002430098

  **** Optimization is complete! (in 4 steps) ****
    Final optimized geometry and variables:
    Molecular point group: c1

  Mulliken Charges: (a.u.)
   Center  Symbol    Alpha    Beta     Spin     Total
       1     C     3.02694  3.02694  0.00000 -0.05388
       2     C     3.00286  3.00286  0.00000 -0.00573
       3     C     3.02989  3.02989  0.00000 -0.05977
       4     C     3.10625  3.10625  0.00000 -0.21251
       5     C     3.00340  3.00340  0.00000 -0.00680
       6     C     3.04282  3.04282  0.00000 -0.08565
       7     C     3.00079  3.00079  0.00000 -0.00158
       8     C     2.96174  2.96174  0.00000  0.07651
       9     C     3.08337  3.08337  0.00000 -0.16674
      10     C     2.96119  2.96119  0.00000  0.07762
      11     C     3.00094  3.00094  0.00000 -0.00187
      12     C     3.00320  3.00320  0.00000 -0.00641
      13     H     0.49188  0.49188  0.00000  0.01625
      14     H     0.48579  0.48579  0.00000  0.02841
      15    CL     8.53366  8.53366  0.00000 -0.06732
      16     H     0.48553  0.48553  0.00000  0.02894
      17     H     0.49041  0.49041  0.00000  0.01917
      18     H     0.47810  0.47810  0.00000  0.04380
      19     H     0.48396  0.48396  0.00000  0.03208
      20     H     0.48087  0.48087  0.00000  0.03825
      21     H     0.47585  0.47585  0.00000  0.04830
      22     H     0.47226  0.47226  0.00000  0.05548
      23     H     0.47438  0.47438  0.00000  0.05124
      24     H     0.47150  0.47150  0.00000  0.05700
      25     H     0.47798  0.47798  0.00000  0.04404
      26     H     0.47442  0.47442  0.00000  0.05116

   Total alpha = 51.00000, Total beta = 51.00000, Total charge = -0.00000

    Molecular point group: c1

    Geometry (in Angstrom), charge = 0, multiplicity = 1:

       Center              X                  Y                   Z               Mass
    ------------   -----------------  -----------------  -----------------  -----------------
         C            3.799773049265     1.488237241555     0.455842318168    12.000000000000
         C            2.288359849335     1.768513973740     0.548544154680    12.000000000000
         C            1.683619979779     0.539266423015    -0.112291767123    12.000000000000
         C            2.608119244194    -0.084496075883    -0.898576195676    12.000000000000
         C            3.942335799450     0.630222309535    -0.814209929651    12.000000000000
         C            0.264320282338     0.182165759665     0.048220433011    12.000000000000
         C           -0.151959881620    -1.162281793150     0.176932715799    12.000000000000
         C           -1.504420050727    -1.494982791379     0.336720774067    12.000000000000
         C           -2.463381487140    -0.472253109660     0.381166410923    12.000000000000
         C           -2.079332073753     0.873618095396     0.279234438517    12.000000000000
         C           -0.723628275127     1.190288612047     0.121816280076    12.000000000000
         C            2.410289575589    -1.231410285090    -1.843868544012    12.000000000000
         H           -0.430131221387     2.241416571612     0.040735365714     1.007825032230
         H           -2.836287252188     1.660562008267     0.324589250972     1.007825032230
         CL          -4.148517228393    -0.876140134940     0.581975788819    34.968852682000
         H           -1.815109082963    -2.537587397331     0.441093555900     1.007825032230
         H            0.598292428784    -1.958082043047     0.183972387835     1.007825032230
         H            4.101806491253     0.885848107492     1.328953431594     1.007825032230
         H            4.414697325950     2.401657887574     0.441136249432     1.007825032230
         H            4.798354477959    -0.065868668517    -0.775906786213     1.007825032230
         H            4.082838648095     1.259555376731    -1.716044722410     1.007825032230
         H            1.346374933042    -1.460345377308    -2.002965230124     1.007825032230
         H            2.865332248093    -0.992888496357    -2.820984756829     1.007825032230
         H            2.911125191374    -2.144775447989    -1.476128799581     1.007825032230
         H            1.935247926547     1.915706776182     1.582766171959     1.007825032230
         H            2.019455401021     2.679358899612    -0.021633646088     1.007825032230

*** Psi4 exiting successfully. Buy a developer a beer!
