                               Psi4 1.4 release

  ==> Input File <==

--------------------------------------------------------------------------
molecule mol {
0 1
 C     0.355130     0.111221    -1.467412
 C    -0.000000    -0.000000     0.000000
 C     0.828100     0.881905     0.953535
 C     2.091555     0.051810     1.254924
 C     2.370953    -0.722993    -0.049363
 C     0.983556    -0.988346    -0.633510
 C    -1.373576    -0.413221     0.414448
 C    -1.542792    -1.321567     1.480545
 C    -2.825059    -1.692334     1.911870
 C    -3.961673    -1.159299     1.279913
 C    -3.805653    -0.253936     0.218219
 C    -2.519836     0.117392    -0.208007
 H    -2.398432     0.829298    -1.030811
 H    -4.686419     0.165723    -0.277661
 O    -5.224199    -1.526822     1.698665
 H    -2.939181    -2.402495     2.736730
 H    -0.656700    -1.746978     1.964470
 H     0.659437    -2.015061    -0.827996
 H    -0.405740    -0.188168    -2.193765
 H     0.996446     0.943276    -1.777222
 H     2.921789    -1.659184     0.134099
 H     2.979683    -0.115336    -0.742780
 H     1.856488    -0.672951     2.054626
 H     2.945544     0.661232     1.596113
 H     0.256631     1.122533     1.863868
 H     1.092347     1.837771     0.466059
 C    -6.184001    -0.867876     0.921124
 H    -7.180299    -1.157899     1.251575
 H    -6.063944     0.208814     1.031793
 H    -6.054349    -1.141975    -0.124811
}

set scf_type df
set basis cc-pVDZ
set reference rhf

mol.update_geometry()
mol.symmetrize(1e-3)

e, wfn = optimize('mp2', return_wfn=True)
oeprop(wfn, "MULLIKEN_CHARGES")
mol.print_out()
print_variables()
--------------------------------------------------------------------------

    Molecular point group: c1
  Charge       = 0
  Multiplicity = 1
  Basis Set: CC-PVDZ
    Blend: CC-PVDZ
  Basis Set: (CC-PVDZ AUX)
    Blend: CC-PVDZ-JKFIT
  @DF-RHF Final Energy:  -576.44620458247675
    Total Energy =                       -576.4462045824768666
  Basis Set: (CC-PVDZ AUX)
    Blend: CC-PVDZ-RI
    Molecular point group: c1
  Basis Set: CC-PVDZ
    Blend: CC-PVDZ
  Basis Set: (CC-PVDZ AUX)
    Blend: CC-PVDZ-JKFIT
  Basis Set: (CC-PVDZ AUX)
    Blend: CC-PVDZ-JKFIT
	 Reference Energy          =    -576.4462045824767529 [Eh]
	 Singles Energy            =      -0.0000000000000000 [Eh]
	 Same-Spin Energy          =      -0.5175217976667609 [Eh]
	 Opposite-Spin Energy      =      -1.4672077277193161 [Eh]
	 Correlation Energy        =      -1.9847295253860771 [Eh]
	 Total Energy              =    -578.4309341078628677 [Eh]
	 SCS Total Energy          =    -578.3793611216289037 [Eh]
  @DF-RHF Final Energy:  -576.45248703887660
    Total Energy =                       -576.4524870388765976
  @DF-RHF Final Energy:  -576.45801419195857
    Total Energy =                       -576.4580141919584548
  @DF-RHF Final Energy:  -576.45873661459018
    Total Energy =                       -576.4587366145901797
  @DF-RHF Final Energy:  -576.45820593700114
    Total Energy =                       -576.4582059370011393
  @DF-RHF Final Energy:  -576.45857690799767
    Total Energy =                       -576.4585769079976671
  Multiplicity = 1
  Basis Set: CC-PVDZ
    Blend: CC-PVDZ
  Basis Set: (CC-PVDZ AUX)
    Blend: CC-PVDZ-JKFIT

    Orbital Energies [Eh]
    ---------------------

    Doubly Occupied:

       1A    -20.584020     2A    -11.301073     3A    -11.291986
       4A    -11.241183     5A    -11.240825     6A    -11.236053
       7A    -11.235093     8A    -11.234013     9A    -11.232100
      10A    -11.229751    11A    -11.228461    12A    -11.225786
      13A    -11.224908    14A    -11.224220    15A     -1.407929
      16A     -1.178881    17A     -1.132601    18A     -1.034582
      19A     -1.012695    20A     -1.009673    21A     -0.957216
      22A     -0.930971    23A     -0.842186    24A     -0.818271
      25A     -0.807451    26A     -0.770756    27A     -0.735728
      28A     -0.708889    29A     -0.677950    30A     -0.658582
      31A     -0.648736    32A     -0.627719    33A     -0.617004
      34A     -0.592578    35A     -0.580287    36A     -0.572992
      37A     -0.566507    38A     -0.560550    39A     -0.539822
      40A     -0.517704    41A     -0.516540    42A     -0.480757
      43A     -0.477920    44A     -0.477202    45A     -0.468304
      46A     -0.465398    47A     -0.450073    48A     -0.403328
      49A     -0.381826    50A     -0.333702    51A     -0.295384

  @DF-RHF Final Energy:  -576.45850119335398

   => Energetics <=

    Nuclear Repulsion Energy =            858.1808810626870354
    One-Electron Energy =               -2485.3024315108259543
    Two-Electron Energy =                1050.6630492547849371
    Total Energy =                       -576.4585011933538681

  Dipole Moment: [D]
     X:    -0.5497      Y:     0.6950      Z:    -0.7930     Total:     1.1891

  Basis Set: (CC-PVDZ AUX)
    Blend: CC-PVDZ-RI
    Molecular point group: c1
  Basis Set: CC-PVDZ
    Blend: CC-PVDZ
  Basis Set: (CC-PVDZ AUX)
    Blend: CC-PVDZ-JKFIT
  Basis Set: (CC-PVDZ AUX)
    Blend: CC-PVDZ-JKFIT
	 Reference Energy          =    -576.4585011933539818 [Eh]
	 Singles Energy            =      -0.0000000000000000 [Eh]
	 Same-Spin Energy          =      -0.5158637863744249 [Eh]
	 Opposite-Spin Energy      =      -1.4657585919643261 [Eh]
	 Correlation Energy        =      -1.9816223783387510 [Eh]
	 Total Energy              =    -578.4401235716927658 [Eh]

	 ================> DF-SCS-MP2 Energies <==================
	-----------------------------------------------------------
	 SCS Same-Spin Scale       =       0.3333333333333333 [-]
	 SCS Opposite-Spin Scale   =       1.2000000000000000 [-]
	 SCS Same-Spin Energy      =      -0.1719545954581416 [Eh]
	 SCS Opposite-Spin Energy  =      -1.7589103103571913 [Eh]
	 SCS Correlation Energy    =      -1.9308649058153329 [Eh]
	 SCS Total Energy          =    -578.3893660991693650 [Eh]
	-----------------------------------------------------------

  -Total Gradient:
     Atom            X                  Y                   Z
    ------   -----------------  -----------------  -----------------
       1        0.000005950949     0.000007851154     0.000008907578
       2       -0.000037227512    -0.000011307085    -0.000031658161
       3        0.000007458442    -0.000014238554     0.000005310649
       4       -0.000001489806    -0.000008543478     0.000000324014
       5        0.000010415317     0.000004724451    -0.000015646883
       6        0.000019307015     0.000013161716     0.000029131965
       7       -0.000003676530     0.000027727762    -0.000006911961
       8       -0.000013240177     0.000009072597     0.000005339952
       9       -0.000006992068    -0.000000124997     0.000005811381
      10       -0.000043083566    -0.000031059405     0.000008544025
      11       -0.000023538195    -0.000004146545     0.000001787436
      12        0.000002810783    -0.000003899491     0.000000805490
      13       -0.000002064269     0.000000761242     0.000001709364
      14       -0.000015300775    -0.000002958453     0.000001672579
      15       -0.000004857942     0.000016700109    -0.000011446093
      16       -0.000001195747    -0.000002121535     0.000001630480
      17       -0.000007212757    -0.000003356184     0.000001261005
      18       -0.000009350833     0.000004048932     0.000007989886
      19        0.000008491620    -0.000008104332    -0.000004326108
      20       -0.000005895192     0.000006099737    -0.000000334148
      21       -0.000002487052     0.000000998818     0.000002759285
      22        0.000008953640     0.000002089152    -0.000000419748
      23        0.000003707623    -0.000003325484     0.000000823713
      24        0.000002704926    -0.000004901442    -0.000004185643
      25       -0.000001081217    -0.000000808849    -0.000001563819
      26       -0.000005985322    -0.000004971093    -0.000004163863
      27        0.000149175969    -0.000031783125     0.000048514875
      28        0.000004099688    -0.000000126838    -0.000000017252
      29       -0.000022970173     0.000026255638    -0.000018977117
      30       -0.000015426839     0.000016285587    -0.000032672878

  **** Optimization is complete! (in 7 steps) ****
    Final optimized geometry and variables:
    Molecular point group: c1

  Mulliken Charges: (a.u.)
   Center  Symbol    Alpha    Beta     Spin     Total
       1     C     2.97229  2.97229  0.00000  0.05541
       2     C     3.12296  3.12296  0.00000 -0.24593
       3     C     2.97988  2.97988  0.00000  0.04023
       4     C     3.02887  3.02887  0.00000 -0.05774
       5     C     2.99997  2.99997  0.00000  0.00005
       6     C     3.05349  3.05349  0.00000 -0.10699
       7     C     3.02930  3.02930  0.00000 -0.05860
       8     C     2.98937  2.98937  0.00000  0.02126
       9     C     3.00232  3.00232  0.00000 -0.00465
      10     C     2.93073  2.93073  0.00000  0.13853
      11     C     3.03490  3.03490  0.00000 -0.06980
      12     C     2.99562  2.99562  0.00000  0.00876
      13     H     0.49721  0.49721  0.00000  0.00559
      14     H     0.49049  0.49049  0.00000  0.01901
      15     O     4.15783  4.15783  0.00000 -0.31567
      16     H     0.48948  0.48948  0.00000  0.02104
      17     H     0.49781  0.49781  0.00000  0.00438
      18     H     0.48852  0.48852  0.00000  0.02297
      19     H     0.47821  0.47821  0.00000  0.04359
      20     H     0.48257  0.48257  0.00000  0.03486
      21     H     0.48014  0.48014  0.00000  0.03972
      22     H     0.48199  0.48199  0.00000  0.03602
      23     H     0.48062  0.48062  0.00000  0.03877
      24     H     0.48562  0.48562  0.00000  0.02875
      25     H     0.48036  0.48036  0.00000  0.03928
      26     H     0.48290  0.48290  0.00000  0.03421
      27     C     2.95952  2.95952  0.00000  0.08095
      28     H     0.46922  0.46922  0.00000  0.06157
      29     H     0.47884  0.47884  0.00000  0.04231
      30     H     0.47894  0.47894  0.00000  0.04213

   Total alpha = 51.00000, Total beta = 51.00000, Total charge = -0.00000

    Molecular point group: c1

    Geometry (in Angstrom), charge = 0, multiplicity = 1:

       Center              X                  Y                   Z               Mass
    ------------   -----------------  -----------------  -----------------  -----------------
         C            2.065908322230     0.577233193190    -1.920348899763    12.000000000000
         C            1.603974012680     0.494027402102    -0.480641334461    12.000000000000
         C            2.408973732092     1.339190373401     0.524767812721    12.000000000000
         C            3.603740030115     0.447405936969     0.916244707455    12.000000000000
         C            3.933173993130    -0.348126956040    -0.363579015835    12.000000000000
         C            2.577682705328    -0.547184767039    -1.041355028723    12.000000000000
         C            0.185742624765     0.154500303906    -0.165263894513    12.000000000000
         C           -0.115136286026    -0.741470423348     0.885270165968    12.000000000000
         C           -1.436944036633    -1.039790840156     1.223668412276    12.000000000000
         C           -2.504038266929    -0.448361406331     0.516722358369    12.000000000000
         C           -2.224124426801     0.446113113059    -0.532184933968    12.000000000000
         C           -0.886973734271     0.738941366571    -0.857948035759    12.000000000000
         H           -0.678430781945     1.442607926768    -1.670427628175     1.007825032230
         H           -3.025272085206     0.922138330266    -1.100479805836     1.007825032230
         O           -3.755913600065    -0.813672258218     0.926947698921    15.994914619570
         H           -1.676768251036    -1.737115269010     2.031231066857     1.007825032230
         H            0.703547355555    -1.218119713945     1.435512932233     1.007825032230
         H            2.215539313138    -1.557405262088    -1.254027605679     1.007825032230
         H            1.342134683319     0.312957666017    -2.696439953446     1.007825032230
         H            2.769333516377     1.373280601756    -2.187111018140     1.007825032230
         H            4.422766471362    -1.309380169036    -0.140217732681     1.007825032230
         H            4.618074635462     0.224648337336    -1.014500728067     1.007825032230
         H            3.275695449752    -0.259918998977     1.698671172316     1.007825032230
         H            4.462374769207     1.013660955440     1.315353230421     1.007825032230
         H            1.788652138569     1.614974982282     1.392064352643     1.007825032230
         H            2.755936936169     2.276875162148     0.053826266720     1.007825032230
         C           -4.840403806716    -0.227060759468     0.225097591056    12.000000000000
         H           -5.751297685297    -0.630690236979     0.685186152939     1.007825032230
         H           -4.840469978098     0.872947383280     0.321199391768     1.007825032230
         H           -4.824335027364    -0.494122360585    -0.846222992935     1.007825032230

*** Psi4 exiting successfully. Buy a developer a beer!
