                               Psi4 1.4 release

  ==> Input File <==

--------------------------------------------------------------------------
memory 62 GB

molecule mol {
0 1
 C     1.511290    -0.280966    -0.092593
 C    -0.000000     0.000000     0.000000
 C    -0.605968    -1.226439    -0.664954
 C     0.319060    -1.848819    -1.451355
 C     1.653820    -1.134973    -1.365322
 C    -2.027094    -1.583009    -0.507457
 C    -2.438238    -2.928025    -0.366876
 C    -3.794208    -3.253627    -0.211477
 C    -4.766046    -2.240264    -0.182231
 C    -4.369571    -0.897483    -0.299270
 C    -3.014139    -0.572542    -0.452922
 C     0.120138    -2.993149    -2.399423
 H    -2.715369     0.476287    -0.545440
 H    -5.118805    -0.100426    -0.268581
 O    -6.099328    -2.559996    -0.025611
 H    -4.091097    -4.301038    -0.099616
 H    -1.681648    -3.717845    -0.347819
 H     1.812305    -0.886836     0.778541
 H     2.127353     0.631886    -0.103726
 H     2.509857    -1.831293    -1.328975
 H     1.794964    -0.502471    -2.264944
 H    -0.944311    -3.224044    -2.552012
 H     0.568816    -2.749556    -3.378502
 H     0.625600    -3.906462    -2.037287
 H    -0.354002     0.144380     1.034324
 H    -0.267853     0.913064    -0.567140
 H    -6.616502    -1.766689    -0.027354
}

set scf_type df
set basis cc-pVDZ
set reference rhf

mol.update_geometry()
mol.symmetrize(1e-3)

e, wfn = optimize('CCSD', return_wfn=True)
oeprop(wfn, "MULLIKEN_CHARGES")
mol.print_out()
print_variables()
--------------------------------------------------------------------------

    Molecular point group: c1
  Charge       = 0
  Multiplicity = 1
  Basis Set: CC-PVDZ
    Blend: CC-PVDZ
  Basis Set: (CC-PVDZ AUX)
    Blend: CC-PVDZ-JKFIT
  @DF-RHF Final Energy:  -537.46113186078435
    Total Energy =                       -537.4611318607843486
      * MP2 total energy                      = -539.292032052024751
      * CCSD total energy                     = -539.377933148453621
    Molecular point group: c1
  Basis Set: CC-PVDZ
    Blend: CC-PVDZ
  Basis Set: (CC-PVDZ AUX)
    Blend: CC-PVDZ-JKFIT
  @DF-RHF Final Energy:  -537.46206133685939
    Total Energy =                       -537.4620613368593922
      * MP2 total energy                      = -539.293075758737018
      * CCSD total energy                     = -539.379369164581249
  Basis Set: CC-PVDZ
    Blend: CC-PVDZ
  Basis Set: (CC-PVDZ AUX)
    Blend: CC-PVDZ-JKFIT
  @DF-RHF Final Energy:  -537.46229114140954
    Total Energy =                       -537.4622911414095370
      * MP2 total energy                      = -539.293093557859834
      * CCSD total energy                     = -539.379476884825294
    Blend: CC-PVDZ
  Basis Set: (CC-PVDZ AUX)
    Blend: CC-PVDZ-JKFIT
  @DF-RHF Final Energy:  -537.46243172875177
    Total Energy =                       -537.4624317287517670
      * MP2 total energy                      = -539.293072719734482
      * CCSD total energy                     = -539.379490745913017
  Basis Set: CC-PVDZ
    Blend: CC-PVDZ
  Basis Set: (CC-PVDZ AUX)
    Blend: CC-PVDZ-JKFIT
  @DF-RHF Final Energy:  -537.46246247224849
    Total Energy =                       -537.4624624722484896
      * MP2 total energy                      = -539.293058701135692
      * CCSD total energy                     = -539.379492450805174
  Multiplicity = 1
  Basis Set: CC-PVDZ
    Blend: CC-PVDZ
  Basis Set: (CC-PVDZ AUX)
    Blend: CC-PVDZ-JKFIT

    Orbital Energies [Eh]
    ---------------------

    Doubly Occupied:

       1A    -20.590150     2A    -11.306147     3A    -11.247750
       4A    -11.245550     5A    -11.241058     6A    -11.240316
       7A    -11.234718     8A    -11.232459     9A    -11.229453
      10A    -11.229196    11A    -11.228405    12A    -11.228232
      13A    -11.225919    14A     -1.402973    15A     -1.154862
      16A     -1.124573    17A     -1.021702    18A     -1.016002
      19A     -1.002346    20A     -0.940153    21A     -0.898406
      22A     -0.842974    23A     -0.820210    24A     -0.778968
      25A     -0.726210    26A     -0.711173    27A     -0.654702
      28A     -0.642024    29A     -0.634567    30A     -0.615272
      31A     -0.585066    32A     -0.584375    33A     -0.580121
      34A     -0.571190    35A     -0.562807    36A     -0.550393
      37A     -0.538646    38A     -0.505116    39A     -0.491080
      40A     -0.487996    41A     -0.475804    42A     -0.474054
      43A     -0.461815    44A     -0.458193    45A     -0.350497
      46A     -0.337991    47A     -0.281511

  @DF-RHF Final Energy:  -537.46246318867088

   => Energetics <=

    Nuclear Repulsion Energy =            743.3356806708184195
    One-Electron Energy =               -2204.0700389111989352
    Two-Electron Energy =                 923.2718950517096346
    Total Energy =                       -537.4624631886708812

  Dipole Moment: [D]
     X:     0.0530      Y:     1.2982      Z:    -0.2780     Total:     1.3287

      * MP2 total energy                      = -539.293054527335244
      * CCSD total energy                     = -539.379492894734653
    Molecular point group: c1

  -Total gradient:
     Atom            X                  Y                   Z
    ------   -----------------  -----------------  -----------------
       1        0.000006081408    -0.000005992144     0.000013507917
       2       -0.000004959701     0.000029433271    -0.000052310989
       3       -0.000021692263    -0.000018637310     0.000036843574
       4        0.000007015671     0.000018865261    -0.000025558737
       5        0.000002986447     0.000008968711     0.000002357993
       6        0.000012428483     0.000036879186     0.000013203820
       7       -0.000033570309    -0.000044172080    -0.000013511474
       8        0.000041537778     0.000028657813    -0.000010216877
       9       -0.000010670964    -0.000025006951     0.000015649754
      10       -0.000031138952    -0.000024509237     0.000002863258
      11        0.000051717243     0.000006908104    -0.000000585288
      12        0.000003824910     0.000007055327    -0.000023225041
      13       -0.000001200982    -0.000012894816     0.000003888757
      14        0.000001790911     0.000006308111    -0.000001759380
      15       -0.000029958403     0.000060103908    -0.000006539248
      16       -0.000013119747    -0.000004399907     0.000000882664
      17       -0.000016545110     0.000011727446     0.000007636295
      18        0.000003698116     0.000005932760    -0.000003135106
      19        0.000002820901     0.000005170562     0.000001942221
      20        0.000014696666    -0.000008424846     0.000002526794
      21       -0.000002620739    -0.000007078580     0.000003931969
      22       -0.000004516228    -0.000002626421    -0.000005979697
      23        0.000001580157    -0.000007114070     0.000006831758
      24       -0.000009784697    -0.000009035779     0.000010669457
      25       -0.000008047638    -0.000008015205     0.000007945167
      26        0.000007422750     0.000005428093     0.000011561222
      27        0.000030224279    -0.000053531206     0.000000579221

  **** Optimization is complete! (in 6 steps) ****
    Final optimized geometry and variables:
    Molecular point group: c1

  Mulliken Charges: (a.u.)
   Center  Symbol    Alpha    Beta     Spin     Total
       1     C     3.02123  3.02123  0.00000 -0.04245
       2     C     2.99136  2.99136  0.00000  0.01727
       3     C     3.03309  3.03309  0.00000 -0.06618
       4     C     3.11289  3.11289  0.00000 -0.22577
       5     C     2.99277  2.99277  0.00000  0.01447
       6     C     3.05190  3.05190  0.00000 -0.10381
       7     C     2.99412  2.99412  0.00000  0.01176
       8     C     2.99678  2.99678  0.00000  0.00644
       9     C     2.96100  2.96100  0.00000  0.07801
      10     C     3.02015  3.02015  0.00000 -0.04031
      11     C     2.99572  2.99572  0.00000  0.00856
      12     C     2.98875  2.98875  0.00000  0.02250
      13     H     0.49643  0.49643  0.00000  0.00714
      14     H     0.49416  0.49416  0.00000  0.01169
      15     O     4.11137  4.11137  0.00000 -0.22275
      16     H     0.48847  0.48847  0.00000  0.02306
      17     H     0.49458  0.49458  0.00000  0.01084
      18     H     0.48229  0.48229  0.00000  0.03542
      19     H     0.48811  0.48811  0.00000  0.02378
      20     H     0.48548  0.48548  0.00000  0.02904
      21     H     0.48088  0.48088  0.00000  0.03824
      22     H     0.47556  0.47556  0.00000  0.04887
      23     H     0.47975  0.47975  0.00000  0.04050
      24     H     0.47695  0.47695  0.00000  0.04609
      25     H     0.48267  0.48267  0.00000  0.03466
      26     H     0.47974  0.47974  0.00000  0.04053
      27     H     0.42379  0.42379  0.00000  0.15241

   Total alpha = 47.00000, Total beta = 47.00000, Total charge = -0.00000

    Molecular point group: c1

    Geometry (in Angstrom), charge = 0, multiplicity = 1:

       Center              X                  Y                   Z               Mass
    ------------   -----------------  -----------------  -----------------  -----------------
         C            3.364615425005     1.376428963072     0.529870622613    12.000000000000
         C            1.847133030752     1.643135018188     0.641598657867    12.000000000000
         C            1.234803311045     0.428384175463    -0.050918571988    12.000000000000
         C            2.154042704366    -0.194484357651    -0.831228991038    12.000000000000
         C            3.506921862663     0.495573325907    -0.730655446313    12.000000000000
         C           -0.202044558144     0.084744341848     0.106971539350    12.000000000000
         C           -0.635080893037    -1.250845248922     0.267264585141    12.000000000000
         C           -1.989205977790    -1.567179439046     0.425654657597    12.000000000000
         C           -2.952841317527    -0.544305840851     0.437091866643    12.000000000000
         C           -2.542710081455     0.791216838018     0.298933294186    12.000000000000
         C           -1.181908699430     1.096517822510     0.143182964176    12.000000000000
         C            1.957341747834    -1.344088305612    -1.783981401372    12.000000000000
         H           -0.883673301368     2.144602554391     0.037268890595     1.007825032230
         H           -3.285752718951     1.597719789907     0.314816343583     1.007825032230
         O           -4.262768872864    -0.909792905878     0.595299876735    15.994914619570
         H           -2.317976600128    -2.602412766159     0.554538346708     1.007825032230
         H            0.105765343582    -2.055802871898     0.291576569085     1.007825032230
         H            3.691405013657     0.797282427176     1.412211041953     1.007825032230
         H            3.968510308652     2.298502393621     0.490097245535     1.007825032230
         H            4.346462165852    -0.220761929063    -0.663028959063     1.007825032230
         H            3.683025934206     1.105972621617    -1.640439343301     1.007825032230
         H            0.892505901814    -1.569391794039    -1.950597201121     1.007825032230
         H            2.418937441062    -1.105675548840    -2.760264479091     1.007825032230
         H            2.453034842313    -2.260861602951    -1.412082406231     1.007825032230
         H            1.504561731008     1.755401046171     1.685464855997     1.007825032230
         H            1.563869215805     2.572478560442     0.106960626841     1.007825032230
         H           -4.795277928832    -0.104568808125     0.589340419869     1.007825032230

*** Psi4 exiting successfully. Buy a developer a beer!
