                               Psi4 1.4 release

  ==> Input File <==

--------------------------------------------------------------------------
memory 32 GB

molecule mol {
1 1
 C     1.263455    -0.830095     0.301389
 C     0.000000    -0.000000     0.000000
 C    -0.828100    -0.881905    -0.953535
 C    -0.472970    -0.770684    -2.420947
 C     0.155456    -1.870251    -1.587045
 C     1.542853    -1.604898    -1.002898
 C    -2.201676    -1.295126    -0.539087
 C    -2.370892    -2.203472     0.527010
 C    -3.653159    -2.574239     0.958335
 C    -4.789773    -2.041204     0.326378
 C    -4.633753    -1.135841    -0.735316
 C    -3.347936    -0.764513    -1.161542
 H    -3.226532    -0.052607    -1.984346
 H    -5.514519    -0.716182    -1.231196
 O    -6.052300    -2.408727     0.745131
 H    -3.767281    -3.284400     1.783195
 H    -1.484800    -2.628883     1.010935
 H    -1.233840    -1.070073    -3.147300
 H     0.168346     0.061371    -2.730757
 H     1.028388    -1.554856     1.101091
 H     2.117444    -0.220673     0.642578
 H     2.093689    -2.541089    -0.819436
 H     2.151583    -0.997241    -1.696315
 H    -0.168663    -2.896966    -1.781531
 H    -0.571469     0.240628     0.910333
 H     0.264247     0.955866    -0.487476
 H     0.707946    -1.772894    -2.264113
 C    -7.012101    -1.749780    -0.032410
 H    -8.008399    -2.039804     0.298040
 H    -6.892044    -0.673091     0.078258
 H    -6.882449    -2.023880    -1.078346
}

set scf_type df
set opt_type ts
set basis cc-pVTZ
set reference rhf
set geom_maxiter 400

mol.update_geometry()
mol.symmetrize(1e-3)

e, wfn = optimize('mp2', return_wfn=True)
oeprop(wfn, "MULLIKEN_CHARGES")
mol.print_out()
print_variables()
--------------------------------------------------------------------------

    Molecular point group: c1
  Charge       = 1
  Multiplicity = 1
  Basis Set: CC-PVTZ
    Blend: CC-PVTZ
  Basis Set: (CC-PVTZ AUX)
    Blend: CC-PVTZ-JKFIT
  @DF-RHF Final Energy:  -576.80294489560060
    Total Energy =                       -576.8029448956006036
  Basis Set: (CC-PVTZ AUX)
    Blend: CC-PVTZ-RI
    Molecular point group: c1
  Basis Set: CC-PVTZ
    Blend: CC-PVTZ
  Basis Set: (CC-PVTZ AUX)
    Blend: CC-PVTZ-JKFIT
  Basis Set: (CC-PVTZ AUX)
    Blend: CC-PVTZ-JKFIT
	 Reference Energy          =    -576.8029448956006036 [Eh]
	 Singles Energy            =      -0.0000000000000000 [Eh]
	 Same-Spin Energy          =      -0.6261169624901763 [Eh]
	 Opposite-Spin Energy      =      -1.9744866226044517 [Eh]
	 Correlation Energy        =      -2.6006035850946283 [Eh]
	 Total Energy              =    -579.4035484806952354 [Eh]
	 SCS Total Energy          =    -579.3810344968893560 [Eh]
  @DF-RHF Final Energy:  -576.86747817733965
    Total Energy =                       -576.8674781773397626
  @DF-RHF Final Energy:  -576.89872450297844
    Total Energy =                       -576.8987245029784390
  @DF-RHF Final Energy:  -576.91701306722018
    Total Energy =                       -576.9170130672202959
  @DF-RHF Final Energy:  -576.92875186593233
    Total Energy =                       -576.9287518659323268
  @DF-RHF Final Energy:  -576.93515332588890
    Total Energy =                       -576.9351533258889049
  @DF-RHF Final Energy:  -576.93962029002319
    Total Energy =                       -576.9396202900231856
  @DF-RHF Final Energy:  -576.94497673216574
    Total Energy =                       -576.9449767321657419
  @DF-RHF Final Energy:  -576.94945234477609
    Total Energy =                       -576.9494523447760912
  @DF-RHF Final Energy:  -576.94545189206269
    Total Energy =                       -576.9454518920626924
  @DF-RHF Final Energy:  -576.94916032338415
    Total Energy =                       -576.9491603233841488
  @DF-RHF Final Energy:  -576.94698560575137
    Total Energy =                       -576.9469856057512516
  @DF-RHF Final Energy:  -576.94600940674820
    Total Energy =                       -576.9460094067483169
  @DF-RHF Final Energy:  -576.94448610509812
    Total Energy =                       -576.9444861050981217
  @DF-RHF Final Energy:  -576.94267596014606
    Total Energy =                       -576.9426759601460617
  @DF-RHF Final Energy:  -576.94067880856892
    Total Energy =                       -576.9406788085689186
  @DF-RHF Final Energy:  -576.94389314604655
    Total Energy =                       -576.9438931460465483
  @DF-RHF Final Energy:  -576.94280897124258
    Total Energy =                       -576.9428089712425844
  @DF-RHF Final Energy:  -576.94091356719161
    Total Energy =                       -576.9409135671915010
  @DF-RHF Final Energy:  -576.93853095382281
    Total Energy =                       -576.9385309538229194
  @DF-RHF Final Energy:  -576.96404794203420
    Total Energy =                       -576.9640479420343127
  @DF-RHF Final Energy:  -576.96570870929054
    Total Energy =                       -576.9657087092905385
  @DF-RHF Final Energy:  -576.96635178708846
    Total Energy =                       -576.9663517870883425
  @DF-RHF Final Energy:  -576.96679201398661
    Total Energy =                       -576.9667920139866055
  @DF-RHF Final Energy:  -576.96701353828610
    Total Energy =                       -576.9670135382862100
  @DF-RHF Final Energy:  -576.96714030360511
    Total Energy =                       -576.9671403036052197
  @DF-RHF Final Energy:  -576.96706922996373
    Total Energy =                       -576.9670692299637267
  @DF-RHF Final Energy:  -576.96691892031720
    Total Energy =                       -576.9669189203173119
  @DF-RHF Final Energy:  -576.96678975013879
    Total Energy =                       -576.9667897501387870
  @DF-RHF Final Energy:  -576.96683549564375
    Total Energy =                       -576.9668354956436360
  @DF-RHF Final Energy:  -576.96699688528724
    Total Energy =                       -576.9669968852872444
  @DF-RHF Final Energy:  -576.96741398798781
    Total Energy =                       -576.9674139879878112
  @DF-RHF Final Energy:  -576.96774227346350
    Total Energy =                       -576.9677422734635002
  @DF-RHF Final Energy:  -576.96814512710876
    Total Energy =                       -576.9681451271087553
  @DF-RHF Final Energy:  -576.96743822465123
    Total Energy =                       -576.9674382246512323
  @DF-RHF Final Energy:  -576.96818593426224
    Total Energy =                       -576.9681859342622374
  @DF-RHF Final Energy:  -576.96821281393284
    Total Energy =                       -576.9682128139329507
  @DF-RHF Final Energy:  -576.96827968425237
    Total Energy =                       -576.9682796842523658
  @DF-RHF Final Energy:  -576.96826238679330
    Total Energy =                       -576.9682623867934126
  Multiplicity = 1
  Basis Set: CC-PVTZ
    Blend: CC-PVTZ
  Basis Set: (CC-PVTZ AUX)
    Blend: CC-PVTZ-JKFIT

    Orbital Energies [Eh]
    ---------------------

    Doubly Occupied:

       1A    -20.698556     2A    -11.517343     3A    -11.430004
       4A    -11.407117     5A    -11.406958     6A    -11.404428
       7A    -11.404167     8A    -11.391531     9A    -11.388220
      10A    -11.386774    11A    -11.379735    12A    -11.376380
      13A    -11.361685    14A    -11.357666    15A     -1.533304
      16A     -1.359880    17A     -1.291104    18A     -1.212601
      19A     -1.198703    20A     -1.163755    21A     -1.149806
      22A     -1.068263    23A     -1.026654    24A     -0.995488
      25A     -0.982360    26A     -0.954814    27A     -0.913806
      28A     -0.862679    29A     -0.832700    30A     -0.818464
      31A     -0.804494    32A     -0.792667    33A     -0.766694
      34A     -0.761448    35A     -0.758351    36A     -0.741641
      37A     -0.741635    38A     -0.729522    39A     -0.699470
      40A     -0.696937    41A     -0.671679    42A     -0.660280
      43A     -0.651617    44A     -0.650778    45A     -0.636530
      46A     -0.629698    47A     -0.627078    48A     -0.605622
      49A     -0.594758    50A     -0.482676    51A     -0.445374

  @DF-RHF Final Energy:  -576.96827879906755

   => Energetics <=

    Nuclear Repulsion Energy =            880.0952046965537647
    One-Electron Energy =               -2513.2791831195554551
    Two-Electron Energy =                1056.2156996239341424
    Total Energy =                       -576.9682787990675479

  Dipole Moment: [D]
     X:     5.5073      Y:     2.6778      Z:    -1.2797     Total:     6.2561

  Basis Set: (CC-PVTZ AUX)
    Blend: CC-PVTZ-RI
    Molecular point group: c1
  Basis Set: CC-PVTZ
    Blend: CC-PVTZ
  Basis Set: (CC-PVTZ AUX)
    Blend: CC-PVTZ-JKFIT
  Basis Set: (CC-PVTZ AUX)
    Blend: CC-PVTZ-JKFIT
	 Reference Energy          =    -576.9682787990675479 [Eh]
	 Singles Energy            =      -0.0000000000000000 [Eh]
	 Same-Spin Energy          =      -0.6116736850187090 [Eh]
	 Opposite-Spin Energy      =      -1.9520145987435278 [Eh]
	 Correlation Energy        =      -2.5636882837622368 [Eh]
	 Total Energy              =    -579.5319670828297376 [Eh]

	 ================> DF-SCS-MP2 Energies <==================
	-----------------------------------------------------------
	 SCS Same-Spin Scale       =       0.3333333333333333 [-]
	 SCS Opposite-Spin Scale   =       1.2000000000000000 [-]
	 SCS Same-Spin Energy      =      -0.2038912283395697 [Eh]
	 SCS Opposite-Spin Energy  =      -2.3424175184922333 [Eh]
	 SCS Correlation Energy    =      -2.5463087468318029 [Eh]
	 SCS Total Energy          =    -579.5145875458993032 [Eh]
	-----------------------------------------------------------

  -Total Gradient:
     Atom            X                  Y                   Z
    ------   -----------------  -----------------  -----------------
       1        0.000034305085    -0.000032516860     0.000015077454
       2       -0.000021034905     0.000094875893    -0.000005584547
       3        0.000092990980    -0.000129221122    -0.000121435007
       4        0.000036880997    -0.000045794027     0.000211018147
       5       -0.000200251951     0.000293186664    -0.000094882493
       6       -0.000018370407    -0.000012760430     0.000079086352
       7        0.000022354424    -0.000052408722     0.000046147023
       8       -0.000006307484    -0.000000394865    -0.000002024328
       9        0.000000475709     0.000009807518     0.000021940928
      10       -0.000004799729    -0.000022221025    -0.000031889629
      11        0.000006130818    -0.000002803343    -0.000014330688
      12        0.000002377849     0.000014626805     0.000015941890
      13       -0.000000400728    -0.000002844651    -0.000005641787
      14        0.000003656254     0.000003179316     0.000003817770
      15        0.000009794698     0.000011965375     0.000023631319
      16       -0.000000652118    -0.000001185689    -0.000004281808
      17       -0.000003420561    -0.000004252498    -0.000008553693
      18       -0.000000435073     0.000008778119    -0.000000158939
      19       -0.000026256557    -0.000015507948    -0.000079808466
      20        0.000008331905    -0.000002264489    -0.000012195868
      21       -0.000020616164     0.000010325978     0.000005236659
      22       -0.000021837528     0.000010378994     0.000016384482
      23        0.000010283665    -0.000003851219     0.000012378087
      24       -0.000011968659    -0.000021273633    -0.000034605185
      25        0.000019623539     0.000013664719     0.000012913084
      26        0.000022636345    -0.000033024242    -0.000003182344
      27        0.000072059343    -0.000086251479    -0.000037253805
      28        0.000002377609    -0.000004548031    -0.000008151889
      29       -0.000000595387    -0.000005223187    -0.000001086605
      30       -0.000003843062     0.000002215736     0.000001482611
      31       -0.000003488908     0.000005342340     0.000000011261

  **** Optimization is complete! (in 54 steps) ****
    Final optimized geometry and variables:
    Molecular point group: c1

  Mulliken Charges: (a.u.)
   Center  Symbol    Alpha    Beta     Spin     Total
       1     C     3.13814  3.13814  0.00000 -0.27627
       2     C     3.12835  3.12835  0.00000 -0.25669
       3     C     2.92590  2.92590  0.00000  0.14819
       4     C     3.12829  3.12829  0.00000 -0.25659
       5     C     3.13815  3.13815  0.00000 -0.27630
       6     C     3.12841  3.12841  0.00000 -0.25683
       7     C     2.96267  2.96267  0.00000  0.07465
       8     C     3.08580  3.08580  0.00000 -0.17160
       9     C     3.09012  3.09012  0.00000 -0.18024
      10     C     2.88773  2.88773  0.00000  0.22455
      11     C     3.10191  3.10191  0.00000 -0.20382
      12     C     3.08552  3.08552  0.00000 -0.17104
      13     H     0.41602  0.41602  0.00000  0.16795
      14     H     0.40835  0.40835  0.00000  0.18331
      15     O     4.09570  4.09570  0.00000 -0.19139
      16     H     0.40792  0.40792  0.00000  0.18415
      17     H     0.41562  0.41562  0.00000  0.16875
      18     H     0.40159  0.40159  0.00000  0.19682
      19     H     0.40525  0.40525  0.00000  0.18951
      20     H     0.40780  0.40780  0.00000  0.18440
      21     H     0.40012  0.40012  0.00000  0.19976
      22     H     0.40377  0.40377  0.00000  0.19246
      23     H     0.42080  0.42080  0.00000  0.15839
      24     H     0.40792  0.40792  0.00000  0.18417
      25     H     0.40147  0.40147  0.00000  0.19706
      26     H     0.40522  0.40522  0.00000  0.18956
      27     H     0.40021  0.40021  0.00000  0.19958
      28     C     3.09777  3.09777  0.00000 -0.19554
      29     H     0.41606  0.41606  0.00000  0.16789
      30     H     0.44370  0.44370  0.00000  0.11260
      31     H     0.44373  0.44373  0.00000  0.11254

   Total alpha = 51.00000, Total beta = 51.00000, Total charge =  1.00000

    Molecular point group: c1

    Geometry (in Angstrom), charge = 1, multiplicity = 1:

       Center              X                  Y                   Z               Mass
    ------------   -----------------  -----------------  -----------------  -----------------
         C            3.032982082568     0.462707814515     1.228315441109    12.000000000000
         C            2.135131933176     1.623974699773     0.587050222434    12.000000000000
         C            1.458921236118     0.850969469848    -0.413091110406    12.000000000000
         C            2.184076739740     0.478137825357    -1.592483741457    12.000000000000
         C            3.084282898194    -0.689982504982    -0.970804892107    12.000000000000
         C            3.913719535024    -0.148774334716     0.167332804999    12.000000000000
         C            0.145616711646     0.292294164372    -0.149130716739    12.000000000000
         C           -0.084669097797    -0.927995471267     0.487778672925    12.000000000000
         C           -1.378289569549    -1.363188041660     0.686598671525    12.000000000000
         C           -2.464454524604    -0.599782161021     0.259092822683    12.000000000000
         C           -2.232828153733     0.618656188495    -0.377035899014    12.000000000000
         C           -0.935217642455     1.061144560572    -0.579496625477    12.000000000000
         H           -0.775448458717     2.006115196605    -1.073441986434     1.007825032230
         H           -3.045677112620     1.231258231706    -0.718512609226     1.007825032230
         O           -3.673171948903    -1.115778221231     0.502640948627    15.994914619570
         H           -1.571768189003    -2.301881588817     1.176056381653     1.007825032230
         H            0.729741006544    -1.542023900542     0.829527826552     1.007825032230
         H            1.564674517473     0.056640149253    -2.372468233478     1.007825032230
         H            2.867180075217     1.239213742779    -1.951188074463     1.007825032230
         H            2.384926658076    -0.275594696660     1.689283596671     1.007825032230
         H            3.589203632157     0.957847008371     2.017014161572     1.007825032230
         H            4.494748314525    -0.957171534512     0.604828185917     1.007825032230
         H            4.619906158467     0.590237041482    -0.203364239689     1.007825032230
         H            2.440656318055    -1.502523498980    -0.649379496964     1.007825032230
         H            1.482238312309     2.016867427193     1.354474694365     1.007825032230
         H            2.822182976954     2.360765409915     0.187689809893     1.007825032230
         H            3.679469084110    -1.046228165928    -1.804925766890     1.007825032230
         C           -4.802193762730    -0.361410235527     0.077840676878    12.000000000000
         H           -5.666224390846    -0.943161720489     0.362998357278     1.007825032230
         H           -4.832683036091     0.603612741860     0.575701515559     1.007825032230
         H           -4.794158777512    -0.225965369142    -0.999954533987     1.007825032230

*** Psi4 exiting successfully. Buy a developer a beer!
