                               Psi4 1.4 release

  ==> Input File <==

--------------------------------------------------------------------------
memory 62 GB

molecule mol {
0 1
C    0.00000000  0.00000000  0.00000000
C   -0.60596800 -1.22643900 -0.66495400
C   -2.02709400 -1.58300900 -0.50745700
C   -2.43823800 -2.92802500 -0.36687600
C   -3.79420800 -3.25362700 -0.21147700
C   -4.76604600 -2.24026400 -0.18223100
C   -4.36957100 -0.89748300 -0.29927000
C   -3.01413900 -0.57254200 -0.45292200
H   -2.71536900  0.47628700 -0.54544000
H   -5.11880500 -0.10042600 -0.26858100
H   -5.82299500 -2.49372900 -0.05807200
H   -4.09109700 -4.30103800 -0.09961600
H   -1.68164800 -3.71784500 -0.34781900
C    0.31906000 -1.84881900 -1.45135500
C    1.65382000 -1.13497300 -1.36532200
C    1.51129000 -0.28096600 -0.09259300
H    1.81230500 -0.88683600  0.77854100
H    2.12735300  0.63188600 -0.10372600
H    2.50985700 -1.83129300 -1.32897500
H    1.79496400 -0.50247100 -2.26494400
C    0.12013800 -2.99314900 -2.39942300
H   -0.94431100 -3.22404400 -2.55201200
H    0.56881600 -2.74955600 -3.37850200
H    0.62560000 -3.90646200 -2.03728700
H   -0.35400200  0.14438000  1.03432400
H   -0.26785300  0.91306400 -0.56714000
}

set scf_type df
set basis cc-pVDZ
set reference rhf

mol.update_geometry()
mol.symmetrize(1e-3)

e, wfn = optimize('CCSD', return_wfn=True)
oeprop(wfn, "MULLIKEN_CHARGES")
mol.print_out()
print_variables()
--------------------------------------------------------------------------

    Molecular point group: c1
  Charge       = 0
  Multiplicity = 1
  Basis Set: CC-PVDZ
    Blend: CC-PVDZ
  Basis Set: (CC-PVDZ AUX)
    Blend: CC-PVDZ-JKFIT
  @DF-RHF Final Energy:  -462.59728993238298
    Total Energy =                       -462.5972899323829779
      * MP2 total energy                      = -464.243240715753018
      * CCSD total energy                     = -464.330191219176413
    Molecular point group: c1
  Basis Set: CC-PVDZ
    Blend: CC-PVDZ
  Basis Set: (CC-PVDZ AUX)
    Blend: CC-PVDZ-JKFIT
  @DF-RHF Final Energy:  -462.59759334639261
    Total Energy =                       -462.5975933463926140
      * MP2 total energy                      = -464.242987886168237
      * CCSD total energy                     = -464.330491447792383
  Basis Set: CC-PVDZ
    Blend: CC-PVDZ
  Basis Set: (CC-PVDZ AUX)
    Blend: CC-PVDZ-JKFIT
  @DF-RHF Final Energy:  -462.59775835803606
    Total Energy =                       -462.5977583580360033
      * MP2 total energy                      = -464.242932462970714
      * CCSD total energy                     = -464.330524495962720
  @DF-RHF Final Energy:  -462.59786024981554
    Total Energy =                       -462.5978602498155396
      * MP2 total energy                      = -464.242920103191466
      * CCSD total energy                     = -464.330531360230964
    Blend: CC-PVDZ
  Basis Set: (CC-PVDZ AUX)
    Blend: CC-PVDZ-JKFIT
  @DF-RHF Final Energy:  -462.59787377316582
    Total Energy =                       -462.5978737731658157
      * MP2 total energy                      = -464.242913562309980
      * CCSD total energy                     = -464.330533451533540
  Basis Set: CC-PVDZ
    Blend: CC-PVDZ
  Basis Set: (CC-PVDZ AUX)
    Blend: CC-PVDZ-JKFIT
  @DF-RHF Final Energy:  -462.59787616789021
    Total Energy =                       -462.5978761678902629
      * MP2 total energy                      = -464.242909668431821
      * CCSD total energy                     = -464.330534468251471
  Multiplicity = 1
  Basis Set: CC-PVDZ
    Blend: CC-PVDZ
  Basis Set: (CC-PVDZ AUX)
    Blend: CC-PVDZ-JKFIT

    Orbital Energies [Eh]
    ---------------------

    Doubly Occupied:

       1A    -11.246921     2A    -11.241348     3A    -11.241064
       4A    -11.238906     5A    -11.238290     6A    -11.238030
       7A    -11.235040     8A    -11.230314     9A    -11.229864
      10A    -11.229380    11A    -11.228983    12A    -11.226616
      13A     -1.155258    14A     -1.125757    15A     -1.026681
      16A     -1.010593    17A     -1.001583    18A     -0.942622
      19A     -0.899639    20A     -0.821973    21A     -0.817552
      22A     -0.778689    23A     -0.713328    24A     -0.665058
      25A     -0.639256    26A     -0.635126    27A     -0.617172
      28A     -0.608011    29A     -0.579230    30A     -0.567687
      31A     -0.563587    32A     -0.539640    33A     -0.532143
      34A     -0.505170    35A     -0.495817    36A     -0.486961
      37A     -0.475874    38A     -0.475115    39A     -0.466082
      40A     -0.458149    41A     -0.359364    42A     -0.330402
      43A     -0.293276

  @DF-RHF Final Energy:  -462.59788202425432

   => Energetics <=

    Nuclear Repulsion Energy =            649.6640547139010096
    One-Electron Energy =               -1913.7007719271609858
    Two-Electron Energy =                 801.4388351890057720
    Total Energy =                       -462.5978820242543179

  Dipole Moment: [D]
     X:     0.3077      Y:    -0.0663      Z:    -0.2305     Total:     0.3902

      * MP2 total energy                      = -464.242909300018368
      * CCSD total energy                     = -464.330534750800325
    Molecular point group: c1

  -Total gradient:
     Atom            X                  Y                   Z
    ------   -----------------  -----------------  -----------------
       1        0.000003077846    -0.000005783804    -0.000011815429
       2       -0.000035780819     0.000033171461    -0.000010467919
       3        0.000048701469    -0.000001984912    -0.000008842721
       4       -0.000039719943    -0.000001572564     0.000002970387
       5        0.000009658977     0.000002100956     0.000000979228
       6        0.000006866018    -0.000005075474    -0.000000517632
       7        0.000019875393     0.000006616743    -0.000006015340
       8       -0.000035956562    -0.000009611322     0.000009649542
       9        0.000002263978     0.000004104449     0.000000655584
      10       -0.000002073206     0.000001214115     0.000000681149
      11       -0.000003894757     0.000000955494     0.000000124909
      12        0.000000087647    -0.000001702113    -0.000002011669
      13        0.000010438097     0.000001913686    -0.000001484924
      14        0.000031325885     0.000009955082    -0.000007226101
      15       -0.000028902124     0.000016846015    -0.000016967830
      16        0.000002530122    -0.000020811751     0.000021989764
      17        0.000008285886     0.000005850477     0.000009018691
      18       -0.000005790342    -0.000001863619    -0.000007109545
      19        0.000012589069    -0.000014314568    -0.000002737348
      20        0.000009320439    -0.000004692667    -0.000009604724
      21       -0.000006708913     0.000001712787     0.000007216422
      22        0.000003003360    -0.000003091688     0.000004882277
      23        0.000000933597     0.000000106897     0.000003206969
      24        0.000001400911    -0.000018333091    -0.000003633770
      25       -0.000006329578     0.000006420748     0.000020688346
      26       -0.000005202454    -0.000002131334     0.000006371684

  **** Optimization is complete! (in 7 steps) ****
    Final optimized geometry and variables:
    Molecular point group: c1

  Mulliken Charges: (a.u.)
   Center  Symbol    Alpha    Beta     Spin     Total
       1     C     2.99065  2.99065  0.00000  0.01870
       2     C     3.03503  3.03503  0.00000 -0.07006
       3     C     3.04713  3.04713  0.00000 -0.09425
       4     C     3.00201  3.00201  0.00000 -0.00401
       5     C     3.00156  3.00156  0.00000 -0.00312
       6     C     3.00937  3.00937  0.00000 -0.01874
       7     C     3.00175  3.00175  0.00000 -0.00349
       8     C     3.00211  3.00211  0.00000 -0.00422
       9     H     0.49729  0.49729  0.00000  0.00543
      10     H     0.49183  0.49183  0.00000  0.01634
      11     H     0.49192  0.49192  0.00000  0.01616
      12     H     0.49152  0.49152  0.00000  0.01696
      13     H     0.49596  0.49596  0.00000  0.00808
      14     C     3.11080  3.11080  0.00000 -0.22160
      15     C     2.99311  2.99311  0.00000  0.01377
      16     C     3.02167  3.02167  0.00000 -0.04334
      17     H     0.48215  0.48215  0.00000  0.03570
      18     H     0.48767  0.48767  0.00000  0.02465
      19     H     0.48519  0.48519  0.00000  0.02962
      20     H     0.48038  0.48038  0.00000  0.03925
      21     C     2.98830  2.98830  0.00000  0.02340
      22     H     0.47538  0.47538  0.00000  0.04923
      23     H     0.47925  0.47925  0.00000  0.04151
      24     H     0.47689  0.47689  0.00000  0.04622
      25     H     0.48202  0.48202  0.00000  0.03596
      26     H     0.47906  0.47906  0.00000  0.04188

   Total alpha = 43.00000, Total beta = 43.00000, Total charge =  0.00000

    Molecular point group: c1

    Geometry (in Angstrom), charge = 0, multiplicity = 1:

       Center              X                  Y                   Z               Mass
    ------------   -----------------  -----------------  -----------------  -----------------
         C            1.405003531971     1.556791653546     0.710071620753    12.000000000000
         C            0.796678423476     0.341056747819     0.015891570412    12.000000000000
         C           -0.640850191179    -0.005921491676     0.168134832152    12.000000000000
         C           -1.058990234373    -1.340771427697     0.355924645714    12.000000000000
         C           -2.418694723277    -1.654908253188     0.508200537295    12.000000000000
         C           -3.386472448328    -0.637965172860     0.484566915705    12.000000000000
         C           -2.982004586218     0.696657501182     0.315720947876    12.000000000000
         C           -1.622583034442     1.008941062479     0.165945907831    12.000000000000
         H           -1.319321378383     2.052880036094     0.034890384071     1.007825032230
         H           -3.727911332676     1.498294128253     0.302448561563     1.007825032230
         H           -4.446784261706    -0.882062225940     0.605414415303     1.007825032230
         H           -2.721368372457    -2.696939646302     0.656017709294     1.007825032230
         H           -0.308210183884    -2.135482141079     0.406116018143     1.007825032230
         C            1.717164019683    -0.280127993361    -0.763986742762    12.000000000000
         C            3.067144830266     0.415755173380    -0.664740479821    12.000000000000
         C            2.923098927591     1.293245773227     0.597904122382    12.000000000000
         H            3.251263441211     0.712733017606     1.478841315966     1.007825032230
         H            3.524780875769     2.216746124298     0.560095116659     1.007825032230
         H            3.909590440886    -0.297375631112    -0.600757120024     1.007825032230
         H            3.238145009972     1.028790803241    -1.573629647759     1.007825032230
         C            1.524292711862    -1.430906053353    -1.715821146961    12.000000000000
         H            0.461165000056    -1.674301720802    -1.865967689938     1.007825032230
         H            1.966926893410    -1.183059164673    -2.698518212764     1.007825032230
         H            2.041927697885    -2.338836240435    -1.352487517785     1.007825032230
         H            1.061953106591     1.667105437591     1.753917988264     1.007825032230
         H            1.119392703507     2.485782272397     0.176432958588     1.007825032230

*** Psi4 exiting successfully. Buy a developer a beer!
