                               Psi4 1.4 release

  ==> Input File <==

--------------------------------------------------------------------------
memory 32 GB

molecule mol {
1 1
C    0.00000000  0.00000000  0.00000000
C   -0.82810000 -0.88190500 -0.95353500
C   -2.20167600 -1.29512600 -0.53908700
C   -2.37089200 -2.20347200  0.52701000
C   -3.65315900 -2.57423900  0.95833500
C   -4.78977300 -2.04120400  0.32637800
C   -4.63375300 -1.13584100 -0.73531600
C   -3.34793600 -0.76451300 -1.16154200
H   -3.22653200 -0.05260700 -1.98434600
H   -5.51451900 -0.71618200 -1.23119600
H   -5.79067600 -2.33256800  0.65835600
H   -3.76728100 -3.28440000  1.78319500
H   -1.48480000 -2.62888300  1.01093500
C   -0.47297000 -0.77068400 -2.42094700
H   -1.23384000 -1.07007300 -3.14730000
H    0.16834600  0.06137100 -2.73075700
C    0.15545600 -1.87025100 -1.58704500
C    1.54285300 -1.60489800 -1.00289800
C    1.26345500 -0.83009500  0.30138900
H    1.02838800 -1.55485600  1.10109100
H    2.11744400 -0.22067300  0.64257800
H    2.09368900 -2.54108900 -0.81943600
H    2.15158300 -0.99724100 -1.69631500
H   -0.16866300 -2.89696600 -1.78153100
H   -0.57146900  0.24062800  0.91033300
H    0.26424700  0.95586600 -0.48747600
H    0.70794595 -1.77289376 -2.26411283
}

set scf_type df
set opt_type ts
set basis cc-pVTZ
set reference rhf
set geom_maxiter 400

mol.update_geometry()
mol.symmetrize(1e-3)

e, wfn = optimize('mp2', return_wfn=True)
oeprop(wfn, "MULLIKEN_CHARGES")
mol.print_out()
print_variables()
--------------------------------------------------------------------------

    Molecular point group: c1
  Charge       = 1
  Multiplicity = 1
  Basis Set: CC-PVTZ
    Blend: CC-PVTZ
  Basis Set: (CC-PVTZ AUX)
    Blend: CC-PVTZ-JKFIT
  @DF-RHF Final Energy:  -462.89122991638675
    Total Energy =                       -462.8912299163866919
  Basis Set: (CC-PVTZ AUX)
    Blend: CC-PVTZ-RI
    Molecular point group: c1
  Basis Set: CC-PVTZ
    Blend: CC-PVTZ
  Basis Set: (CC-PVTZ AUX)
    Blend: CC-PVTZ-JKFIT
  Basis Set: (CC-PVTZ AUX)
    Blend: CC-PVTZ-JKFIT
	 Reference Energy          =    -462.8912299163867488 [Eh]
	 Singles Energy            =      -0.0000000000000000 [Eh]
	 Same-Spin Energy          =      -0.5153416117514663 [Eh]
	 Opposite-Spin Energy      =      -1.6421781327308276 [Eh]
	 Correlation Energy        =      -2.1575197444822938 [Eh]
	 Total Energy              =    -465.0487496608690208 [Eh]
	 SCS Total Energy          =    -465.0336242129142192 [Eh]
  @DF-RHF Final Energy:  -462.96157534736631
    Total Energy =                       -462.9615753473663062
  @DF-RHF Final Energy:  -462.98375580450727
    Total Energy =                       -462.9837558045072683
  @DF-RHF Final Energy:  -462.99820369506318
    Total Energy =                       -462.9982036950632391
  @DF-RHF Final Energy:  -463.00613879982700
    Total Energy =                       -463.0061387998269993
  @DF-RHF Final Energy:  -463.01035848851143
    Total Energy =                       -463.0103584885114287
  @DF-RHF Final Energy:  -463.01441283858594
    Total Energy =                       -463.0144128385859403
  @DF-RHF Final Energy:  -463.01885812932903
    Total Energy =                       -463.0188581293290326
  @DF-RHF Final Energy:  -463.02302353170160
    Total Energy =                       -463.0230235317015968
  @DF-RHF Final Energy:  -463.02743836008671
    Total Energy =                       -463.0274383600867623
  @DF-RHF Final Energy:  -463.03165898326620
    Total Energy =                       -463.0316589832661975
  @DF-RHF Final Energy:  -463.02836350261521
    Total Energy =                       -463.0283635026152069
  @DF-RHF Final Energy:  -463.03174187523501
    Total Energy =                       -463.0317418752349568
  @DF-RHF Final Energy:  -463.02840553736110
    Total Energy =                       -463.0284055373610954
  @DF-RHF Final Energy:  -463.02690520651788
    Total Energy =                       -463.0269052065178812
  @DF-RHF Final Energy:  -463.02492046807549
    Total Energy =                       -463.0249204680754929
  @DF-RHF Final Energy:  -463.02237091072868
    Total Energy =                       -463.0223709107286822
  @DF-RHF Final Energy:  -463.01975326383490
    Total Energy =                       -463.0197532638349003
  @DF-RHF Final Energy:  -463.02253816714949
    Total Energy =                       -463.0225381671494915
  @DF-RHF Final Energy:  -463.02579270811373
    Total Energy =                       -463.0257927081137268
  @DF-RHF Final Energy:  -463.03471268749541
    Total Energy =                       -463.0347126874953574
  @DF-RHF Final Energy:  -463.03832642191185
    Total Energy =                       -463.0383264219118473
  @DF-RHF Final Energy:  -463.04141167190073
    Total Energy =                       -463.0414116719007325
  @DF-RHF Final Energy:  -463.04144304192630
    Total Energy =                       -463.0414430419262999
  @DF-RHF Final Energy:  -463.04141402679932
    Total Energy =                       -463.0414140267993162
  @DF-RHF Final Energy:  -463.04173593239358
    Total Energy =                       -463.0417359323935216
  @DF-RHF Final Energy:  -463.04219688424416
    Total Energy =                       -463.0421968842441629
  @DF-RHF Final Energy:  -463.04218940618114
    Total Energy =                       -463.0421894061811372
  @DF-RHF Final Energy:  -463.04212317820111
    Total Energy =                       -463.0421231782011091
  @DF-RHF Final Energy:  -463.04211389307972
    Total Energy =                       -463.0421138930796587
  @DF-RHF Final Energy:  -463.04180035273362
    Total Energy =                       -463.0418003527336168
  @DF-RHF Final Energy:  -463.04217234671859
    Total Energy =                       -463.0421723467186439
  @DF-RHF Final Energy:  -463.04226374387787
    Total Energy =                       -463.0422637438778111
  @DF-RHF Final Energy:  -463.04247551195692
    Total Energy =                       -463.0424755119569227
  @DF-RHF Final Energy:  -463.04263454146133
    Total Energy =                       -463.0426345414613252
  @DF-RHF Final Energy:  -463.04124536927986
    Total Energy =                       -463.0412453692798636
  @DF-RHF Final Energy:  -463.04272407719469
    Total Energy =                       -463.0427240771947481
  @DF-RHF Final Energy:  -463.04255957183415
    Total Energy =                       -463.0425595718340901
  @DF-RHF Final Energy:  -463.04262825558317
    Total Energy =                       -463.0426282555831676
  Multiplicity = 1
  Basis Set: CC-PVTZ
    Blend: CC-PVTZ
  Basis Set: (CC-PVTZ AUX)
    Blend: CC-PVTZ-JKFIT

    Orbital Energies [Eh]
    ---------------------

    Doubly Occupied:

       1A    -11.523022     2A    -11.412214     3A    -11.412186
       4A    -11.408535     5A    -11.408466     6A    -11.406896
       7A    -11.388348     8A    -11.386859     9A    -11.380048
      10A    -11.371868    11A    -11.371648    12A    -11.366790
      13A     -1.365994    14A     -1.298884    15A     -1.219644
      16A     -1.203355    17A     -1.164844    18A     -1.156352
      19A     -1.031364    20A     -1.019707    21A     -0.981829
      22A     -0.964582    23A     -0.919501    24A     -0.865920
      25A     -0.823118    26A     -0.822998    27A     -0.796216
      28A     -0.782653    29A     -0.761273    30A     -0.755064
      31A     -0.746653    32A     -0.735585    33A     -0.717034
      34A     -0.701277    35A     -0.663899    36A     -0.652906
      37A     -0.649180    38A     -0.649023    39A     -0.634182
      40A     -0.630638    41A     -0.628395    42A     -0.483057
      43A     -0.481131

  @DF-RHF Final Energy:  -463.04262214629478

   => Energetics <=

    Nuclear Repulsion Energy =            684.2749825258905503
    One-Electron Energy =               -1968.3489360741284599
    Two-Electron Energy =                 821.0313314019432482
    Total Energy =                       -463.0426221462947751

  Dipole Moment: [D]
     X:     3.3505      Y:     0.8493      Z:    -0.8790     Total:     3.5665

  Basis Set: (CC-PVTZ AUX)
    Blend: CC-PVTZ-RI
    Molecular point group: c1
  Basis Set: CC-PVTZ
    Blend: CC-PVTZ
  Basis Set: (CC-PVTZ AUX)
    Blend: CC-PVTZ-JKFIT
  Basis Set: (CC-PVTZ AUX)
    Blend: CC-PVTZ-JKFIT
	 Reference Energy          =    -463.0426221462947751 [Eh]
	 Singles Energy            =      -0.0000000000000000 [Eh]
	 Same-Spin Energy          =      -0.5028949735470492 [Eh]
	 Opposite-Spin Energy      =      -1.6226216943684002 [Eh]
	 Correlation Energy        =      -2.1255166679154494 [Eh]
	 Total Energy              =    -465.1681388142102378 [Eh]

	 ================> DF-SCS-MP2 Energies <==================
	-----------------------------------------------------------
	 SCS Same-Spin Scale       =       0.3333333333333333 [-]
	 SCS Opposite-Spin Scale   =       1.2000000000000000 [-]
	 SCS Same-Spin Energy      =      -0.1676316578490164 [Eh]
	 SCS Opposite-Spin Energy  =      -1.9471460332420802 [Eh]
	 SCS Correlation Energy    =      -2.1147776910910965 [Eh]
	 SCS Total Energy          =    -465.1573998373858672 [Eh]
	-----------------------------------------------------------

  -Total Gradient:
     Atom            X                  Y                   Z
    ------   -----------------  -----------------  -----------------
       1       -0.000048917452     0.000073722665    -0.000035156222
       2        0.000054861138    -0.000057456168    -0.000088145275
       3        0.000043400906    -0.000116151693     0.000027858862
       4       -0.000013851616     0.000020533004    -0.000006948670
       5       -0.000009880756    -0.000004749809    -0.000011040748
       6        0.000003874105    -0.000003627591     0.000002292577
       7       -0.000000723677     0.000002734283     0.000004574895
       8        0.000014180945     0.000039832664     0.000019371539
       9       -0.000002340522     0.000000915927     0.000001887300
      10       -0.000000500779    -0.000001843110    -0.000006127046
      11        0.000000411372     0.000000389516     0.000000286982
      12        0.000000448662    -0.000000103059    -0.000002249419
      13        0.000002158006    -0.000000551651    -0.000001708935
      14        0.000099490112    -0.000064589589     0.000178560184
      15        0.000007003777     0.000003672951    -0.000016162219
      16       -0.000042989088     0.000007481501    -0.000079502389
      17       -0.000162644919     0.000241500962    -0.000012593205
      18        0.000005785899    -0.000001352305     0.000043226553
      19        0.000007809877    -0.000023428763    -0.000010769855
      20        0.000003325089    -0.000008029926    -0.000005978611
      21       -0.000011749840     0.000011745121     0.000006485053
      22       -0.000012878919    -0.000002175392     0.000011000198
      23        0.000009344940    -0.000019384416     0.000006355871
      24       -0.000006430007     0.000002391670     0.000007453321
      25        0.000016593849    -0.000015523039     0.000011885380
      26        0.000005504007    -0.000019512155    -0.000008406491
      27        0.000038714887    -0.000066441609    -0.000036449626

  **** Optimization is complete! (in 44 steps) ****
    Final optimized geometry and variables:
    Molecular point group: c1

  Mulliken Charges: (a.u.)
   Center  Symbol    Alpha    Beta     Spin     Total
       1     C     3.12788  3.12788  0.00000 -0.25575
       2     C     2.92517  2.92517  0.00000  0.14966
       3     C     2.95351  2.95351  0.00000  0.09298
       4     C     3.09200  3.09200  0.00000 -0.18400
       5     C     3.06722  3.06722  0.00000 -0.13445
       6     C     3.07105  3.07105  0.00000 -0.14209
       7     C     3.05355  3.05355  0.00000 -0.10709
       8     C     3.08088  3.08088  0.00000 -0.16176
       9     H     0.41472  0.41472  0.00000  0.17056
      10     H     0.40532  0.40532  0.00000  0.18937
      11     H     0.40574  0.40574  0.00000  0.18853
      12     H     0.40723  0.40723  0.00000  0.18554
      13     H     0.41583  0.41583  0.00000  0.16834
      14     C     3.12780  3.12780  0.00000 -0.25560
      15     H     0.40081  0.40081  0.00000  0.19838
      16     H     0.40403  0.40403  0.00000  0.19194
      17     C     3.13832  3.13832  0.00000 -0.27665
      18     C     3.12820  3.12820  0.00000 -0.25640
      19     C     3.13837  3.13837  0.00000 -0.27674
      20     H     0.40768  0.40768  0.00000  0.18463
      21     H     0.39942  0.39942  0.00000  0.20115
      22     H     0.40308  0.40308  0.00000  0.19384
      23     H     0.42022  0.42022  0.00000  0.15957
      24     H     0.40775  0.40775  0.00000  0.18449
      25     H     0.40074  0.40074  0.00000  0.19852
      26     H     0.40403  0.40403  0.00000  0.19194
      27     H     0.39945  0.39945  0.00000  0.20110

   Total alpha = 43.00000, Total beta = 43.00000, Total charge =  1.00000

    Molecular point group: c1

    Geometry (in Angstrom), charge = 1, multiplicity = 1:

       Center              X                  Y                   Z               Mass
    ------------   -----------------  -----------------  -----------------  -----------------
         C            1.570447515251     1.229495620204     0.615718145263    12.000000000000
         C            0.676919731123     0.679468644173    -0.359867784915    12.000000000000
         C           -0.648976437072     0.229180709247     0.029085022503    12.000000000000
         C           -0.933043364756    -1.036770374514     0.534133644508    12.000000000000
         C           -2.240431046813    -1.354702297585     0.871961270734    12.000000000000
         C           -3.254444104067    -0.423264212565     0.709704266482    12.000000000000
         C           -2.965501559257     0.837223501645     0.206111064365    12.000000000000
         C           -1.665926069171     1.173451033172    -0.137443790220    12.000000000000
         H           -1.448269833889     2.154114972545    -0.528270945762     1.007825032230
         H           -3.748255105663     1.564383511737     0.077822955458     1.007825032230
         H           -4.265416216536    -0.677494426102     0.974077210765     1.007825032230
         H           -2.460499624149    -2.333148391275     1.262015040823     1.007825032230
         H           -0.157291383407    -1.770139446056     0.665784690802     1.007825032230
         C            1.177476042406     0.407292139460    -1.674464399570    12.000000000000
         H            0.409578956173     0.162648774159    -2.395840470145     1.007825032230
         H            1.888439202357     1.140347279659    -2.037156507380     1.007825032230
         C            2.013510789851    -0.920126662209    -1.350620465675    12.000000000000
         C            3.053933469065    -0.627427191732    -0.298461159161    12.000000000000
         C            2.410009182670    -0.092449417892     0.956067032512    12.000000000000
         H            1.753225105447    -0.823901827743     1.415739026035     1.007825032230
         H            3.125726777917     0.230573223624     1.704374168158     1.007825032230
         H            3.593512596422    -1.541804570432    -0.063071651302     1.007825032230
         H            3.781064279007     0.085567577542    -0.679275220853     1.007825032230
         H            1.331443537694    -1.703385269431    -1.035838618389     1.007825032230
         H            1.081829340880     1.568513224940     1.519105351479     1.007825032230
         H            2.275352052494     1.947425865403     0.213202503048     1.007825032230
         H            2.436772033485    -1.210713479937    -2.306245408660     1.007825032230

*** Psi4 exiting successfully. Buy a developer a beer!
