                               Psi4 1.4 release

  ==> Input File <==

--------------------------------------------------------------------------
molecule mol {
0 1
 C     1.511290    -0.280966    -0.092593
 C    -0.000000     0.000000     0.000000
 C    -0.605968    -1.226439    -0.664954
 C     0.319060    -1.848819    -1.451355
 C     1.653820    -1.134973    -1.365322
 C    -2.027094    -1.583009    -0.507457
 C    -2.438238    -2.928025    -0.366876
 C    -3.794208    -3.253627    -0.211477
 C    -4.766046    -2.240264    -0.182231
 C    -4.369571    -0.897483    -0.299270
 C    -3.014139    -0.572542    -0.452922
 C     0.120138    -2.993149    -2.399423
 H    -2.715369     0.476287    -0.545440
 H    -5.118805    -0.100426    -0.268581
 O    -6.099328    -2.559996    -0.025611
 H    -4.091097    -4.301038    -0.099616
 H    -1.681648    -3.717845    -0.347819
 H     1.812305    -0.886836     0.778541
 H     2.127353     0.631886    -0.103726
 H     2.509857    -1.831293    -1.328975
 H     1.794964    -0.502471    -2.264944
 H    -0.944311    -3.224044    -2.552012
 H     0.568816    -2.749556    -3.378502
 H     0.625600    -3.906462    -2.037287
 H    -0.354002     0.144380     1.034324
 H    -0.267853     0.913064    -0.567140
 C    -6.863894    -1.387208    -0.028188
 H    -7.916027    -1.639518     0.095405
 H    -6.545927    -0.744791     0.791640
 H    -6.724450    -0.865053    -0.973614
}

set scf_type df
set basis cc-pVDZ
set reference rhf

mol.update_geometry()
mol.symmetrize(1e-3)

e, wfn = optimize('mp2', return_wfn=True)
oeprop(wfn, "MULLIKEN_CHARGES")
mol.print_out()
print_variables()
--------------------------------------------------------------------------

    Molecular point group: c1
  Charge       = 0
  Multiplicity = 1
  Basis Set: CC-PVDZ
    Blend: CC-PVDZ
  Basis Set: (CC-PVDZ AUX)
    Blend: CC-PVDZ-JKFIT
  @DF-RHF Final Energy:  -576.47122586665500
    Total Energy =                       -576.4712258666550042
  Basis Set: (CC-PVDZ AUX)
    Blend: CC-PVDZ-RI
    Molecular point group: c1
  Basis Set: CC-PVDZ
    Blend: CC-PVDZ
  Basis Set: (CC-PVDZ AUX)
    Blend: CC-PVDZ-JKFIT
  Basis Set: (CC-PVDZ AUX)
    Blend: CC-PVDZ-JKFIT
	 Reference Energy          =    -576.4712258666550042 [Eh]
	 Singles Energy            =      -0.0000000000000000 [Eh]
	 Same-Spin Energy          =      -0.5139905313973461 [Eh]
	 Opposite-Spin Energy      =      -1.4645092518516867 [Eh]
	 Correlation Energy        =      -1.9784997832490328 [Eh]
	 Total Energy              =    -578.4497256499040532 [Eh]
	 SCS Total Energy          =    -578.3999671460094305 [Eh]
  @DF-RHF Final Energy:  -576.47732081472031
    Total Energy =                       -576.4773208147203150
  @DF-RHF Final Energy:  -576.48293739161625
    Total Energy =                       -576.4829373916163604
  @DF-RHF Final Energy:  -576.48349872494430
    Total Energy =                       -576.4834987249441838
  @DF-RHF Final Energy:  -576.48294164514027
    Total Energy =                       -576.4829416451402722
  @DF-RHF Final Energy:  -576.48340191844193
    Total Energy =                       -576.4834019184418139
  @DF-RHF Final Energy:  -576.48329462457639
    Total Energy =                       -576.4832946245765015
  @DF-RHF Final Energy:  -576.48341526172464
    Total Energy =                       -576.4834152617245309
  Multiplicity = 1
  Basis Set: CC-PVDZ
    Blend: CC-PVDZ
  Basis Set: (CC-PVDZ AUX)
    Blend: CC-PVDZ-JKFIT

    Orbital Energies [Eh]
    ---------------------

    Doubly Occupied:

       1A    -20.585085     2A    -11.302318     3A    -11.292750
       4A    -11.243889     5A    -11.242359     6A    -11.237666
       7A    -11.237508     8A    -11.232359     9A    -11.230881
      10A    -11.227424    11A    -11.227013    12A    -11.226288
      13A    -11.226167    14A    -11.223910    15A     -1.408869
      16A     -1.154553    17A     -1.124774    18A     -1.028552
      19A     -1.015098    20A     -1.002474    21A     -0.959339
      22A     -0.923065    23A     -0.895790    24A     -0.830781
      25A     -0.805913    26A     -0.777850    27A     -0.719051
      28A     -0.694615    29A     -0.659291    30A     -0.649557
      31A     -0.641119    32A     -0.635341    33A     -0.618729
      34A     -0.586313    35A     -0.579690    36A     -0.568584
      37A     -0.562857    38A     -0.557099    39A     -0.538646
      40A     -0.520415    41A     -0.518625    42A     -0.500362
      43A     -0.483141    44A     -0.480354    45A     -0.475701
      46A     -0.470658    47A     -0.459130    48A     -0.453386
      49A     -0.349089    50A     -0.334457    51A     -0.275858

  @DF-RHF Final Energy:  -576.48341046065946

   => Energetics <=

    Nuclear Repulsion Energy =            842.7777889853256283
    One-Electron Energy =               -2454.5329157899745951
    Two-Electron Energy =                1035.2717163439895103
    Total Energy =                       -576.4834104606595702

  Dipole Moment: [D]
     X:    -0.3262      Y:     1.1994      Z:    -0.2493     Total:     1.2677

  Basis Set: (CC-PVDZ AUX)
    Blend: CC-PVDZ-RI
    Molecular point group: c1
  Basis Set: CC-PVDZ
    Blend: CC-PVDZ
  Basis Set: (CC-PVDZ AUX)
    Blend: CC-PVDZ-JKFIT
  Basis Set: (CC-PVDZ AUX)
    Blend: CC-PVDZ-JKFIT
	 Reference Energy          =    -576.4834104606594565 [Eh]
	 Singles Energy            =      -0.0000000000000000 [Eh]
	 Same-Spin Energy          =      -0.5123821093953118 [Eh]
	 Opposite-Spin Energy      =      -1.4630889491968382 [Eh]
	 Correlation Energy        =      -1.9754710585921500 [Eh]
	 Total Energy              =    -578.4588815192515767 [Eh]

	 ================> DF-SCS-MP2 Energies <==================
	-----------------------------------------------------------
	 SCS Same-Spin Scale       =       0.3333333333333333 [-]
	 SCS Opposite-Spin Scale   =       1.2000000000000000 [-]
	 SCS Same-Spin Energy      =      -0.1707940364651039 [Eh]
	 SCS Opposite-Spin Energy  =      -1.7557067390362058 [Eh]
	 SCS Correlation Energy    =      -1.9265007755013097 [Eh]
	 SCS Total Energy          =    -578.4099112361607240 [Eh]
	-----------------------------------------------------------

  -Total Gradient:
     Atom            X                  Y                   Z
    ------   -----------------  -----------------  -----------------
       1        0.000000798117    -0.000002566958     0.000000313192
       2       -0.000004808315    -0.000006826014     0.000009265231
       3        0.000028910839     0.000012292836    -0.000010964814
       4       -0.000005942478    -0.000002178709    -0.000008700395
       5        0.000002672750    -0.000006071517     0.000003946172
       6       -0.000029205916    -0.000004407805    -0.000004259198
       7        0.000001797946     0.000009814883     0.000023343019
       8       -0.000017702885     0.000003068160     0.000004298352
       9        0.000010443782    -0.000000669305    -0.000020764517
      10        0.000000290074    -0.000002538502     0.000001739322
      11        0.000002321176    -0.000001000186    -0.000003739931
      12       -0.000003162359    -0.000004943273     0.000005872226
      13        0.000000455266    -0.000000255086    -0.000000092144
      14       -0.000001023855     0.000002204073     0.000003545210
      15        0.000024056929    -0.000034708536     0.000010060596
      16        0.000002191135    -0.000000780922    -0.000001234111
      17        0.000006358710    -0.000001151856    -0.000005867353
      18       -0.000000376876     0.000000976999     0.000000588551
      19       -0.000000524064    -0.000000999864    -0.000000656525
      20        0.000001121061     0.000000978522     0.000000320643
      21       -0.000000643928    -0.000000300046     0.000000047228
      22        0.000001937376     0.000000509514     0.000004222806
      23       -0.000002983127     0.000003644287    -0.000005268183
      24        0.000009175475     0.000003506137    -0.000003733479
      25       -0.000001158939     0.000000925161     0.000000200769
      26       -0.000000478918    -0.000000404794     0.000000448192
      27       -0.000047200553     0.000044439639    -0.000011417727
      28        0.000016982397     0.000000968411     0.000003347265
      29        0.000002295405    -0.000005195010    -0.000001967561
      30        0.000003403768    -0.000008330245     0.000007107163

  **** Optimization is complete! (in 9 steps) ****
    Final optimized geometry and variables:
    Molecular point group: c1

  Mulliken Charges: (a.u.)
   Center  Symbol    Alpha    Beta     Spin     Total
       1     C     3.02657  3.02657  0.00000 -0.05313
       2     C     3.00258  3.00258  0.00000 -0.00515
       3     C     3.02872  3.02872  0.00000 -0.05743
       4     C     3.10770  3.10770  0.00000 -0.21540
       5     C     3.00321  3.00321  0.00000 -0.00642
       6     C     3.04370  3.04370  0.00000 -0.08740
       7     C     3.00043  3.00043  0.00000 -0.00087
       8     C     3.00165  3.00165  0.00000 -0.00331
       9     C     2.93038  2.93038  0.00000  0.13923
      10     C     3.03355  3.03355  0.00000 -0.06710
      11     C     3.00290  3.00290  0.00000 -0.00580
      12     C     3.00307  3.00307  0.00000 -0.00615
      13     H     0.49732  0.49732  0.00000  0.00536
      14     H     0.49070  0.49070  0.00000  0.01860
      15     O     4.15762  4.15762  0.00000 -0.31525
      16     H     0.48895  0.48895  0.00000  0.02211
      17     H     0.49474  0.49474  0.00000  0.01053
      18     H     0.47896  0.47896  0.00000  0.04207
      19     H     0.48550  0.48550  0.00000  0.02901
      20     H     0.48224  0.48224  0.00000  0.03552
      21     H     0.47732  0.47732  0.00000  0.04536
      22     H     0.47216  0.47216  0.00000  0.05568
      23     H     0.47619  0.47619  0.00000  0.04761
      24     H     0.47277  0.47277  0.00000  0.05446
      25     H     0.47940  0.47940  0.00000  0.04120
      26     H     0.47564  0.47564  0.00000  0.04872
      27     C     2.95961  2.95961  0.00000  0.08078
      28     H     0.46900  0.46900  0.00000  0.06199
      29     H     0.47871  0.47871  0.00000  0.04259
      30     H     0.47870  0.47870  0.00000  0.04259

   Total alpha = 51.00000, Total beta = 51.00000, Total charge = -0.00000

    Molecular point group: c1

    Geometry (in Angstrom), charge = 0, multiplicity = 1:

       Center              X                  Y                   Z               Mass
    ------------   -----------------  -----------------  -----------------  -----------------
         C            3.876148608943     0.941156271036     0.444423772690    12.000000000000
         C            2.410509351539     1.411215699571     0.490580995100    12.000000000000
         C            1.662806593762     0.227490290244    -0.104001996436    12.000000000000
         C            2.511982361913    -0.554515727548    -0.831685208826    12.000000000000
         C            3.924748352612    -0.008470879724    -0.766162529291    12.000000000000
         C            0.208577439923     0.060674594076     0.055937505383    12.000000000000
         C           -0.380747282331    -1.212146015567     0.249425980351    12.000000000000
         C           -1.761335373419    -1.353592843716     0.408199979656    12.000000000000
         C           -2.603616652638    -0.224224330186     0.389858264455    12.000000000000
         C           -2.035898812742     1.052780031521     0.222782170884    12.000000000000
         C           -0.645872407043     1.182014983774     0.066413382939    12.000000000000
         C            2.182230970531    -1.725206618062    -1.708811894350    12.000000000000
         H           -0.222774728375     2.182872853614    -0.064872215556     1.007825032230
         H           -2.654783300112     1.951810981850     0.214248992462     1.007825032230
         O           -3.936471720939    -0.478227485785     0.553850619367    15.994914619570
         H           -2.217353054614    -2.335045943822     0.565404986495     1.007825032230
         H            0.258939055072    -2.097390342556     0.307854737667     1.007825032230
         H            4.090961539627     0.363433535482     1.359131246319     1.007825032230
         H            4.600968897067     1.768315736776     0.384290696188     1.007825032230
         H            4.686290846478    -0.801756850290    -0.666281204033     1.007825032230
         H            4.155590774434     0.538873605030    -1.702471165245     1.007825032230
         H            1.099848550573    -1.824506626634    -1.876641424610     1.007825032230
         H            2.678279464221    -1.610070677116    -2.688530938078     1.007825032230
         H            2.554285972264    -2.670668304789    -1.274928946089     1.007825032230
         H            2.066747076159     1.666870453734     1.506738404791     1.007825032230
         H            2.263769749080     2.310546379098    -0.139486608706     1.007825032230
         C           -4.795345798262     0.651546596120     0.548511884885    12.000000000000
         H           -5.810470357076     0.259232386960     0.689331052860     1.007825032230
         H           -4.556607298347     1.348119970062     1.371234901898     1.007825032230
         H           -4.744958952368     1.196323488509    -0.410504102847     1.007825032230

*** Psi4 exiting successfully. Buy a developer a beer!
