                               Psi4 1.4 release

  ==> Input File <==

--------------------------------------------------------------------------
molecule mol {
0 1
 C     1.511290    -0.280966    -0.092593
 C    -0.000000     0.000000     0.000000
 C    -0.605968    -1.226439    -0.664954
 C     0.319060    -1.848819    -1.451355
 C     1.653820    -1.134973    -1.365322
 C    -2.027094    -1.583009    -0.507457
 C    -2.438238    -2.928025    -0.366876
 C    -3.794208    -3.253627    -0.211477
 C    -4.766046    -2.240264    -0.182231
 C    -4.369571    -0.897483    -0.299270
 C    -3.014139    -0.572542    -0.452922
 C     0.120138    -2.993149    -2.399423
 H    -2.715369     0.476287    -0.545440
 H    -5.118805    -0.100426    -0.268581
 O    -6.099328    -2.559996    -0.025611
 H    -4.091097    -4.301038    -0.099616
 H    -1.681648    -3.717845    -0.347819
 H     1.812305    -0.886836     0.778541
 H     2.127353     0.631886    -0.103726
 H     2.509857    -1.831293    -1.328975
 H     1.794964    -0.502471    -2.264944
 H    -0.944311    -3.224044    -2.552012
 H     0.568816    -2.749556    -3.378502
 H     0.625600    -3.906462    -2.037287
 H    -0.354002     0.144380     1.034324
 H    -0.267853     0.913064    -0.567140
 H    -6.616502    -1.766689    -0.027354
}

set scf_type df
set basis cc-pVDZ
set reference rhf

mol.update_geometry()
mol.symmetrize(1e-3)

e, wfn = optimize('mp2', return_wfn=True)
oeprop(wfn, "MULLIKEN_CHARGES")
mol.print_out()
print_variables()
--------------------------------------------------------------------------

    Molecular point group: c1
  Charge       = 0
  Multiplicity = 1
  Basis Set: CC-PVDZ
    Blend: CC-PVDZ
  Basis Set: (CC-PVDZ AUX)
    Blend: CC-PVDZ-JKFIT
  @DF-RHF Final Energy:  -537.46113186079356
    Total Energy =                       -537.4611318607935573
  Basis Set: (CC-PVDZ AUX)
    Blend: CC-PVDZ-RI
    Molecular point group: c1
  Basis Set: CC-PVDZ
    Blend: CC-PVDZ
  Basis Set: (CC-PVDZ AUX)
    Blend: CC-PVDZ-JKFIT
  Basis Set: (CC-PVDZ AUX)
    Blend: CC-PVDZ-JKFIT
	 Reference Energy          =    -537.4611318607935573 [Eh]
	 Singles Energy            =      -0.0000000000000000 [Eh]
	 Same-Spin Energy          =      -0.4793831504156091 [Eh]
	 Opposite-Spin Energy      =      -1.3504592403613545 [Eh]
	 Correlation Energy        =      -1.8298423907769636 [Eh]
	 Total Energy              =    -539.2909742515705602 [Eh]
	 SCS Total Energy          =    -539.2414773326991053 [Eh]
  @DF-RHF Final Energy:  -537.46161996982642
    Total Energy =                       -537.4616199698264154
  @DF-RHF Final Energy:  -537.46158288286097
    Total Energy =                       -537.4615828828609665
  @DF-RHF Final Energy:  -537.46162089100585
    Total Energy =                       -537.4616208910058504
  Multiplicity = 1
  Basis Set: CC-PVDZ
    Blend: CC-PVDZ
  Basis Set: (CC-PVDZ AUX)
    Blend: CC-PVDZ-JKFIT

    Orbital Energies [Eh]
    ---------------------

    Doubly Occupied:

       1A    -20.590822     2A    -11.306149     3A    -11.247717
       4A    -11.245437     5A    -11.241236     6A    -11.239673
       7A    -11.234603     8A    -11.232089     9A    -11.228468
      10A    -11.228285    11A    -11.227453    12A    -11.227238
      13A    -11.224929    14A     -1.403156    15A     -1.156193
      16A     -1.125776    17A     -1.023038    18A     -1.016651
      19A     -1.003854    20A     -0.940240    21A     -0.898666
      22A     -0.843006    23A     -0.820830    24A     -0.778755
      25A     -0.725852    26A     -0.712626    27A     -0.654962
      28A     -0.643672    29A     -0.636638    30A     -0.615708
      31A     -0.585240    32A     -0.584571    33A     -0.580681
      34A     -0.570968    35A     -0.563469    36A     -0.551192
      37A     -0.539472    38A     -0.505175    39A     -0.491745
      40A     -0.488130    41A     -0.477342    42A     -0.474599
      43A     -0.461825    44A     -0.459411    45A     -0.351425
      46A     -0.338124    47A     -0.278218

  @DF-RHF Final Energy:  -537.46162773653998

   => Energetics <=

    Nuclear Repulsion Energy =            744.8640006604557584
    One-Electron Energy =               -2207.1006414811990908
    Two-Electron Energy =                 924.7750130842033514
    Total Energy =                       -537.4616277365399810

  Dipole Moment: [D]
     X:     0.0426      Y:     1.3099      Z:    -0.2401     Total:     1.3324

  Basis Set: (CC-PVDZ AUX)
    Blend: CC-PVDZ-RI
    Molecular point group: c1
  Basis Set: CC-PVDZ
    Blend: CC-PVDZ
  Basis Set: (CC-PVDZ AUX)
    Blend: CC-PVDZ-JKFIT
  Basis Set: (CC-PVDZ AUX)
    Blend: CC-PVDZ-JKFIT
	 Reference Energy          =    -537.4616277365399810 [Eh]
	 Singles Energy            =      -0.0000000000000000 [Eh]
	 Same-Spin Energy          =      -0.4797013538939270 [Eh]
	 Opposite-Spin Energy      =      -1.3510232348206592 [Eh]
	 Correlation Energy        =      -1.8307245887145862 [Eh]
	 Total Energy              =    -539.2923523252545692 [Eh]

	 ================> DF-SCS-MP2 Energies <==================
	-----------------------------------------------------------
	 SCS Same-Spin Scale       =       0.3333333333333333 [-]
	 SCS Opposite-Spin Scale   =       1.2000000000000000 [-]
	 SCS Same-Spin Energy      =      -0.1599004512979756 [Eh]
	 SCS Opposite-Spin Energy  =      -1.6212278817847909 [Eh]
	 SCS Correlation Energy    =      -1.7811283330827665 [Eh]
	 SCS Total Energy          =    -539.2427560696227147 [Eh]
	-----------------------------------------------------------

  -Total Gradient:
     Atom            X                  Y                   Z
    ------   -----------------  -----------------  -----------------
       1        0.000003928569    -0.000001043344     0.000003021988
       2        0.000001228416    -0.000017537160     0.000033685164
       3        0.000012355864     0.000039487368    -0.000024780165
       4        0.000017193670    -0.000054796586     0.000039912092
       5       -0.000018362532     0.000027982548    -0.000032747723
       6       -0.000034147450     0.000031560001    -0.000026925775
       7       -0.000036017007     0.000004410943     0.000033036113
       8        0.000069292556    -0.000031327101    -0.000004531429
       9       -0.000097819717     0.000061589912    -0.000001896042
      10       -0.000000052928    -0.000006723185     0.000004413894
      11        0.000027111016    -0.000036301865    -0.000016147748
      12       -0.000003017567    -0.000001605012     0.000003054472
      13        0.000002697159     0.000010479918    -0.000001807089
      14       -0.000001833248    -0.000012138189     0.000002402113
      15        0.000024277063     0.000034741448    -0.000001924377
      16       -0.000021971470    -0.000002678034     0.000003455754
      17        0.000004550222    -0.000009894334    -0.000015217146
      18       -0.000003536929     0.000002665622     0.000002847283
      19        0.000003389851    -0.000001486884    -0.000002877172
      20       -0.000009398615    -0.000003431608     0.000000690350
      21        0.000013348473     0.000005260708    -0.000003235373
      22       -0.000003761223     0.000000353430     0.000011827125
      23       -0.000004671992     0.000003316393    -0.000006344591
      24        0.000011615264     0.000005429773    -0.000003584425
      25        0.000002826849     0.000003139548     0.000001285284
      26       -0.000000103990    -0.000005247013     0.000002923915
      27        0.000040879691    -0.000046207294    -0.000000536491

  **** Optimization is complete! (in 5 steps) ****
    Final optimized geometry and variables:
    Molecular point group: c1

  Mulliken Charges: (a.u.)
   Center  Symbol    Alpha    Beta     Spin     Total
       1     C     3.02684  3.02684  0.00000 -0.05367
       2     C     3.00246  3.00246  0.00000 -0.00492
       3     C     3.02932  3.02932  0.00000 -0.05864
       4     C     3.10726  3.10726  0.00000 -0.21451
       5     C     3.00321  3.00321  0.00000 -0.00642
       6     C     3.04409  3.04409  0.00000 -0.08819
       7     C     3.00058  3.00058  0.00000 -0.00117
       8     C     2.99646  2.99646  0.00000  0.00708
       9     C     2.96612  2.96612  0.00000  0.06775
      10     C     3.02064  3.02064  0.00000 -0.04128
      11     C     3.00217  3.00217  0.00000 -0.00433
      12     C     3.00303  3.00303  0.00000 -0.00606
      13     H     0.49626  0.49626  0.00000  0.00747
      14     H     0.49287  0.49287  0.00000  0.01426
      15     O     4.10744  4.10744  0.00000 -0.21487
      16     H     0.48730  0.48730  0.00000  0.02540
      17     H     0.49421  0.49421  0.00000  0.01159
      18     H     0.47885  0.47885  0.00000  0.04231
      19     H     0.48535  0.48535  0.00000  0.02929
      20     H     0.48211  0.48211  0.00000  0.03579
      21     H     0.47722  0.47722  0.00000  0.04557
      22     H     0.47221  0.47221  0.00000  0.05559
      23     H     0.47606  0.47606  0.00000  0.04789
      24     H     0.47268  0.47268  0.00000  0.05465
      25     H     0.47932  0.47932  0.00000  0.04135
      26     H     0.47570  0.47570  0.00000  0.04860
      27     H     0.42026  0.42026  0.00000  0.15948

   Total alpha = 47.00000, Total beta = 47.00000, Total charge =  0.00000

    Molecular point group: c1

    Geometry (in Angstrom), charge = 0, multiplicity = 1:

       Center              X                  Y                   Z               Mass
    ------------   -----------------  -----------------  -----------------  -----------------
         C            3.342243680829     1.391884508205     0.512338554354    12.000000000000
         C            1.830780596317     1.670088737839     0.609473337176    12.000000000000
         C            1.223799455413     0.443874690320    -0.055123098516    12.000000000000
         C            2.147973516366    -0.176468050072    -0.844348873531    12.000000000000
         C            3.482873597587     0.537205925076    -0.760263761854    12.000000000000
         C           -0.195093371797     0.085705435058     0.110722558175    12.000000000000
         C           -0.615580639962    -1.259283025224     0.232783336667    12.000000000000
         C           -1.965630516608    -1.589195736702     0.398398065032    12.000000000000
         C           -2.937463111689    -0.575727937237     0.457579993983    12.000000000000
         C           -2.536813298396     0.768209455430     0.361614380160    12.000000000000
         C           -1.182627506051     1.091006554881     0.198071456492    12.000000000000
         C            1.947454921425    -1.319727513777    -1.793631257440    12.000000000000
         H           -0.892056721390     2.143349259760     0.122909125058     1.007825032230
         H           -3.285696584372     1.567049872232     0.417180573826     1.007825032230
         O           -4.241084041207    -0.959084356889     0.621244240460    15.994914619570
         H           -2.286367333591    -2.629610521045     0.499811997426     1.007825032230
         H            0.132874690720    -2.056804108145     0.229384515672     1.007825032230
         H            3.646834938702     0.787111728761     1.382999515092     1.007825032230
         H            3.956953299752     2.305718400867     0.498877117497     1.007825032230
         H            4.339055298516    -0.159056119442    -0.723849760635     1.007825032230
         H            3.624013623323     1.169160091619    -1.660380685506     1.007825032230
         H            0.882409542068    -1.544150605510    -1.951588265263     1.007825032230
         H            2.402422530684    -1.079272490660    -2.770529265190     1.007825032230
         H            2.444980547227    -2.236637619460    -1.429949722858     1.007825032230
         H            1.479884184257     1.812523803964     1.645197297328     1.007825032230
         H            1.559986758388     2.583806473048     0.044554777904     1.007825032230
         H           -4.776044829162    -0.153232772011     0.651079677108     1.007825032230

*** Psi4 exiting successfully. Buy a developer a beer!
