                               Psi4 1.4 release

  ==> Input File <==

--------------------------------------------------------------------------
molecule mol {
0 1
 C     1.511290    -0.280966    -0.092593
 C    -0.000000     0.000000     0.000000
 C    -0.605968    -1.226439    -0.664954
 C     0.319060    -1.848819    -1.451355
 C     1.653820    -1.134973    -1.365322
 C    -2.027094    -1.583009    -0.507457
 C    -2.438238    -2.928025    -0.366876
 C    -3.794208    -3.253627    -0.211477
 C    -4.766046    -2.240264    -0.182231
 C    -4.369571    -0.897483    -0.299270
 C    -3.014139    -0.572542    -0.452922
 C     0.120138    -2.993149    -2.399423
 H    -2.715369     0.476287    -0.545440
 H    -5.118805    -0.100426    -0.268581
 O    -6.099328    -2.559996    -0.025611
 H    -4.091097    -4.301038    -0.099616
 H    -1.681648    -3.717845    -0.347819
 H     1.812305    -0.886836     0.778541
 H     2.127353     0.631886    -0.103726
 H     2.509857    -1.831293    -1.328975
 H     1.794964    -0.502471    -2.264944
 H    -0.944311    -3.224044    -2.552012
 H     0.568816    -2.749556    -3.378502
 H     0.625600    -3.906462    -2.037287
 H    -0.354002     0.144380     1.034324
 H    -0.267853     0.913064    -0.567140
 C    -6.863894    -1.387208    -0.028188
 H    -7.916027    -1.639518     0.095405
 H    -6.545927    -0.744791     0.791640
 H    -6.724450    -0.865053    -0.973614
}

set scf_type df
set basis cc-pVTZ
set reference rhf

mol.update_geometry()
mol.symmetrize(1e-3)

e, wfn = optimize('mp2', return_wfn=True)
oeprop(wfn, "MULLIKEN_CHARGES")
mol.print_out()
print_variables()
--------------------------------------------------------------------------

    Molecular point group: c1
  Charge       = 0
  Multiplicity = 1
  Basis Set: CC-PVTZ
    Blend: CC-PVTZ
  Basis Set: (CC-PVTZ AUX)
    Blend: CC-PVTZ-JKFIT
  @DF-RHF Final Energy:  -576.61808396724905
    Total Energy =                       -576.6180839672490492
  Basis Set: (CC-PVTZ AUX)
    Blend: CC-PVTZ-RI
    Molecular point group: c1
  Basis Set: CC-PVTZ
    Blend: CC-PVTZ
  Basis Set: (CC-PVTZ AUX)
    Blend: CC-PVTZ-JKFIT
  Basis Set: (CC-PVTZ AUX)
    Blend: CC-PVTZ-JKFIT
	 Reference Energy          =    -576.6180839672490492 [Eh]
	 Singles Energy            =      -0.0000000000000000 [Eh]
	 Same-Spin Energy          =      -0.6210751918473022 [Eh]
	 Opposite-Spin Energy      =      -1.9637183293844103 [Eh]
	 Correlation Energy        =      -2.5847935212317124 [Eh]
	 Total Energy              =    -579.2028774884807945 [Eh]
	 SCS Total Energy          =    -579.1815710264594372 [Eh]
  @DF-RHF Final Energy:  -576.63279400331078
    Total Energy =                       -576.6327940033106643
  @DF-RHF Final Energy:  -576.63756948249920
    Total Energy =                       -576.6375694824992024
  @DF-RHF Final Energy:  -576.63770541007148
    Total Energy =                       -576.6377054100714759
  @DF-RHF Final Energy:  -576.63694245679562
    Total Energy =                       -576.6369424567956230
  @DF-RHF Final Energy:  -576.63726191427168
    Total Energy =                       -576.6372619142716758
  @DF-RHF Final Energy:  -576.63719031091910
    Total Energy =                       -576.6371903109190953
  @DF-RHF Final Energy:  -576.63715510309146
    Total Energy =                       -576.6371551030915725
  @DF-RHF Final Energy:  -576.63713387663006
    Total Energy =                       -576.6371338766300596
  @DF-RHF Final Energy:  -576.63712703998863
    Total Energy =                       -576.6371270399886271
  Multiplicity = 1
  Basis Set: CC-PVTZ
    Blend: CC-PVTZ
  Basis Set: (CC-PVTZ AUX)
    Blend: CC-PVTZ-JKFIT

    Orbital Energies [Eh]
    ---------------------

    Doubly Occupied:

       1A    -20.581290     2A    -11.292024     3A    -11.278870
       4A    -11.230149     5A    -11.228781     6A    -11.224999
       7A    -11.223786     8A    -11.219477     9A    -11.219273
      10A    -11.214955    11A    -11.213248    12A    -11.213133
      13A    -11.212488    14A    -11.211127    15A     -1.411537
      16A     -1.162855    17A     -1.131836    18A     -1.033987
      19A     -1.020961    20A     -1.007467    21A     -0.964349
      22A     -0.926756    23A     -0.900298    24A     -0.836552
      25A     -0.809952    26A     -0.782157    27A     -0.727690
      28A     -0.697967    29A     -0.665473    30A     -0.656231
      31A     -0.646336    32A     -0.642316    33A     -0.623786
      34A     -0.590980    35A     -0.584965    36A     -0.572801
      37A     -0.568130    38A     -0.561603    39A     -0.544175
      40A     -0.525123    41A     -0.524405    42A     -0.503206
      43A     -0.486036    44A     -0.484020    45A     -0.477043
      46A     -0.472518    47A     -0.460833    48A     -0.457430
      49A     -0.354776    50A     -0.337651    51A     -0.275710

  @DF-RHF Final Energy:  -576.63711397511565

   => Energetics <=

    Nuclear Repulsion Energy =            852.4482739949488632
    One-Electron Energy =               -2474.1837609746517046
    Two-Electron Energy =                1045.0983730045870743
    Total Energy =                       -576.6371139751156534

  Dipole Moment: [D]
     X:    -0.2940      Y:     1.1457      Z:    -0.1363     Total:     1.1906

  Basis Set: (CC-PVTZ AUX)
    Blend: CC-PVTZ-RI
    Molecular point group: c1
  Basis Set: CC-PVTZ
    Blend: CC-PVTZ
  Basis Set: (CC-PVTZ AUX)
    Blend: CC-PVTZ-JKFIT
  Basis Set: (CC-PVTZ AUX)
    Blend: CC-PVTZ-JKFIT
	 Reference Energy          =    -576.6371139751156534 [Eh]
	 Singles Energy            =      -0.0000000000000000 [Eh]
	 Same-Spin Energy          =      -0.6198536888511732 [Eh]
	 Opposite-Spin Energy      =      -1.9591125090363384 [Eh]
	 Correlation Energy        =      -2.5789661978875116 [Eh]
	 Total Energy              =    -579.2160801730032063 [Eh]

	 ================> DF-SCS-MP2 Energies <==================
	-----------------------------------------------------------
	 SCS Same-Spin Scale       =       0.3333333333333333 [-]
	 SCS Opposite-Spin Scale   =       1.2000000000000000 [-]
	 SCS Same-Spin Energy      =      -0.2066178962837244 [Eh]
	 SCS Opposite-Spin Energy  =      -2.3509350108436058 [Eh]
	 SCS Correlation Energy    =      -2.5575529071273300 [Eh]
	 SCS Total Energy          =    -579.1946668822429274 [Eh]
	-----------------------------------------------------------

  -Total Gradient:
     Atom            X                  Y                   Z
    ------   -----------------  -----------------  -----------------
       1        0.000002216507    -0.000009604684     0.000010471653
       2        0.000002226923     0.000000260056     0.000008924496
       3       -0.000003762566     0.000008554602    -0.000022958675
       4       -0.000020255753    -0.000000486688     0.000025535467
       5       -0.000003321503     0.000011473312    -0.000020567562
       6        0.000011129566     0.000000582714     0.000005234376
       7       -0.000019338084     0.000002159395    -0.000003518903
       8        0.000011716519    -0.000001345171    -0.000003675838
       9       -0.000024716385     0.000007235604     0.000018445588
      10       -0.000006017918    -0.000005017420    -0.000004047042
      11       -0.000000722116    -0.000000695914     0.000001959136
      12        0.000012146022    -0.000007081592     0.000003049921
      13       -0.000002876103    -0.000003978534    -0.000000711857
      14        0.000002958340    -0.000000801074    -0.000000423610
      15        0.000037006056    -0.000033339692    -0.000005342682
      16        0.000002358955     0.000003618391    -0.000000223103
      17       -0.000002808183     0.000001811983    -0.000002778148
      18        0.000003061849     0.000004005360    -0.000001510775
      19       -0.000004541858    -0.000003078695    -0.000000751743
      20       -0.000006390923    -0.000002008724    -0.000000011807
      21        0.000003102834    -0.000004255427     0.000002289303
      22        0.000004701565    -0.000001399501     0.000000099908
      23       -0.000001275471     0.000002783216     0.000004626642
      24        0.000002922624     0.000003192285    -0.000004711391
      25        0.000004548815    -0.000000409122    -0.000003765236
      26       -0.000004428422    -0.000003446977    -0.000001166083
      27       -0.000005236948     0.000038925624    -0.000004429278
      28        0.000006925750    -0.000003686850    -0.000001516623
      29        0.000000538952    -0.000004517030    -0.000002346630
      30       -0.000001869055     0.000000550564     0.000003820506

  **** Optimization is complete! (in 11 steps) ****
    Final optimized geometry and variables:
    Molecular point group: c1

  Mulliken Charges: (a.u.)
   Center  Symbol    Alpha    Beta     Spin     Total
       1     C     3.12661  3.12661  0.00000 -0.25323
       2     C     3.13646  3.13646  0.00000 -0.27292
       3     C     3.05269  3.05269  0.00000 -0.10537
       4     C     2.99096  2.99096  0.00000  0.01808
       5     C     3.12904  3.12904  0.00000 -0.25809
       6     C     2.90571  2.90571  0.00000  0.18859
       7     C     3.08485  3.08485  0.00000 -0.16971
       8     C     3.10059  3.10059  0.00000 -0.20118
       9     C     2.89434  2.89434  0.00000  0.21132
      10     C     3.11971  3.11971  0.00000 -0.23943
      11     C     3.10186  3.10186  0.00000 -0.20373
      12     C     3.20558  3.20558  0.00000 -0.41116
      13     H     0.42621  0.42621  0.00000  0.14758
      14     H     0.42455  0.42455  0.00000  0.15090
      15     O     4.10763  4.10763  0.00000 -0.21526
      16     H     0.42364  0.42364  0.00000  0.15273
      17     H     0.41910  0.41910  0.00000  0.16181
      18     H     0.44032  0.44032  0.00000  0.11935
      19     H     0.43574  0.43574  0.00000  0.12852
      20     H     0.43712  0.43712  0.00000  0.12575
      21     H     0.44028  0.44028  0.00000  0.11943
      22     H     0.43102  0.43102  0.00000  0.13796
      23     H     0.43567  0.43567  0.00000  0.12865
      24     H     0.43295  0.43295  0.00000  0.13410
      25     H     0.43340  0.43340  0.00000  0.13320
      26     H     0.43902  0.43902  0.00000  0.12197
      27     C     3.09575  3.09575  0.00000 -0.19150
      28     H     0.42827  0.42827  0.00000  0.14346
      29     H     0.45048  0.45048  0.00000  0.09904
      30     H     0.45043  0.45043  0.00000  0.09914

   Total alpha = 51.00000, Total beta = 51.00000, Total charge = -0.00000

    Molecular point group: c1

    Geometry (in Angstrom), charge = 0, multiplicity = 1:

       Center              X                  Y                   Z               Mass
    ------------   -----------------  -----------------  -----------------  -----------------
         C            3.809604772730     1.049731007143     0.371643232654    12.000000000000
         C            2.339044558690     1.457985373183     0.439657225353    12.000000000000
         C            1.632971054609     0.255138104503    -0.130106275948    12.000000000000
         C            2.487700439667    -0.494453734949    -0.851703236330    12.000000000000
         C            3.871490967708     0.084525347923    -0.810415529944    12.000000000000
         C            0.207102540187     0.054204461964     0.051279308777    12.000000000000
         C           -0.359709647452    -1.220202212689     0.157381084310    12.000000000000
         C           -1.717936092410    -1.391435337125     0.330690983732    12.000000000000
         C           -2.561913046041    -0.287545106867     0.410676965543    12.000000000000
         C           -2.019631822554     0.990234713973     0.332107129967    12.000000000000
         C           -0.650854236841     1.145913215109     0.163090462350    12.000000000000
         C            2.193559308248    -1.667653164973    -1.713625126284    12.000000000000
         H           -0.247522304510     2.143445944821     0.104500388310     1.007825032230
         H           -2.641574562575     1.862918682964     0.403332082715     1.007825032230
         O           -3.881318377662    -0.557556943215     0.577706030399    15.994914619570
         H           -2.148515252954    -2.373978767193     0.421695392776     1.007825032230
         H            0.279740472578    -2.085783712416     0.138397417172     1.007825032230
         H            4.062167136964     0.508052542637     1.279113613082     1.007825032230
         H            4.488306316027     1.890930644100     0.280188223242     1.007825032230
         H            4.641862689372    -0.675510745610    -0.701078437091     1.007825032230
         H            4.075565681760     0.609632560222    -1.746623217487     1.007825032230
         H            1.133253189578    -1.772896336121    -1.916051078700     1.007825032230
         H            2.717014607158    -1.565585178071    -2.662431420713     1.007825032230
         H            2.547373668697    -2.592904821420    -1.259933746201     1.007825032230
         H            2.011917731268     1.700447277127     1.446860940056     1.007825032230
         H            2.148069337463     2.334904520774    -0.181904708733     1.007825032230
         C           -4.740965269347     0.558071702071     0.672270230597    12.000000000000
         H           -5.738087202058     0.158637764590     0.798676190315     1.007825032230
         H           -4.490594748856     1.179774545065     1.529366289967     1.007825032230
         H           -4.706817433012     1.162377352225    -0.231844157410     1.007825032230

*** Psi4 exiting successfully. Buy a developer a beer!
