                               Psi4 1.4 release

  ==> Input File <==

--------------------------------------------------------------------------
memory 32 GB

molecule mol {
1 1
C    0.00000000  0.00000000  0.00000000
C   -0.82810000 -0.88190500 -0.95353500
C   -2.20167600 -1.29512600 -0.53908700
C   -2.37089200 -2.20347200  0.52701000
C   -3.65315900 -2.57423900  0.95833500
C   -4.78977300 -2.04120400  0.32637800
C   -4.63375300 -1.13584100 -0.73531600
C   -3.34793600 -0.76451300 -1.16154200
H   -3.22653200 -0.05260700 -1.98434600
H   -5.51451900 -0.71618200 -1.23119600
H   -5.79067600 -2.33256800  0.65835600
H   -3.76728100 -3.28440000  1.78319500
H   -1.48480000 -2.62888300  1.01093500
C   -0.47297000 -0.77068400 -2.42094700
H   -1.23384000 -1.07007300 -3.14730000
H    0.16834600  0.06137100 -2.73075700
C    0.15545600 -1.87025100 -1.58704500
C    1.54285300 -1.60489800 -1.00289800
C    1.26345500 -0.83009500  0.30138900
H    1.02838800 -1.55485600  1.10109100
H    2.11744400 -0.22067300  0.64257800
H    2.09368900 -2.54108900 -0.81943600
H    2.15158300 -0.99724100 -1.69631500
H   -0.16866300 -2.89696600 -1.78153100
H   -0.57146900  0.24062800  0.91033300
H    0.26424700  0.95586600 -0.48747600
H    0.70794595 -1.77289376 -2.26411283
}

set scf_type df
set opt_type ts
set basis cc-pVDZ
set reference rhf
set geom_maxiter 400

mol.update_geometry()
mol.symmetrize(1e-3)

e, wfn = optimize('mp2', return_wfn=True)
oeprop(wfn, "MULLIKEN_CHARGES")
mol.print_out()
print_variables()
--------------------------------------------------------------------------

    Molecular point group: c1
  Charge       = 1
  Multiplicity = 1
  Basis Set: CC-PVDZ
    Blend: CC-PVDZ
  Basis Set: (CC-PVDZ AUX)
    Blend: CC-PVDZ-JKFIT
  @DF-RHF Final Energy:  -462.77410809977619
    Total Energy =                       -462.7741080997761856
  Basis Set: (CC-PVDZ AUX)
    Blend: CC-PVDZ-RI
    Molecular point group: c1
  Basis Set: CC-PVDZ
    Blend: CC-PVDZ
  Basis Set: (CC-PVDZ AUX)
    Blend: CC-PVDZ-JKFIT
  Basis Set: (CC-PVDZ AUX)
    Blend: CC-PVDZ-JKFIT
	 Reference Energy          =    -462.7741080997761856 [Eh]
	 Singles Energy            =      -0.0000000000000000 [Eh]
	 Same-Spin Energy          =      -0.4305544432213250 [Eh]
	 Opposite-Spin Energy      =      -1.2246368436417017 [Eh]
	 Correlation Energy        =      -1.6551912868630267 [Eh]
	 Total Energy              =    -464.4292993866392294 [Eh]
	 SCS Total Energy          =    -464.3871904598866536 [Eh]
  @DF-RHF Final Energy:  -462.84334458943295
    Total Energy =                       -462.8433445894329452
  @DF-RHF Final Energy:  -462.86471732455732
    Total Energy =                       -462.8647173245573185
  @DF-RHF Final Energy:  -462.87931244879758
    Total Energy =                       -462.8793124487975774
  @DF-RHF Final Energy:  -462.88676692532420
    Total Energy =                       -462.8867669253241957
  @DF-RHF Final Energy:  -462.89026170880845
    Total Energy =                       -462.8902617088084526
  @DF-RHF Final Energy:  -462.89348390789161
    Total Energy =                       -462.8934839078915502
  @DF-RHF Final Energy:  -462.89747749929086
    Total Energy =                       -462.8974774992908578
  @DF-RHF Final Energy:  -462.90192191585226
    Total Energy =                       -462.9019219158521992
  @DF-RHF Final Energy:  -462.90577298028859
    Total Energy =                       -462.9057729802885888
  @DF-RHF Final Energy:  -462.90914100696483
    Total Energy =                       -462.9091410069647736
  @DF-RHF Final Energy:  -462.90632524996386
    Total Energy =                       -462.9063252499638565
  @DF-RHF Final Energy:  -462.90963768092939
    Total Energy =                       -462.9096376809293361
  @DF-RHF Final Energy:  -462.90577786128904
    Total Energy =                       -462.9057778612890388
  @DF-RHF Final Energy:  -462.90500713620162
    Total Energy =                       -462.9050071362016752
  @DF-RHF Final Energy:  -462.90311978350337
    Total Energy =                       -462.9031197835033709
  @DF-RHF Final Energy:  -462.90551636815030
    Total Energy =                       -462.9055163681503018
  @DF-RHF Final Energy:  -462.90437893870825
    Total Energy =                       -462.9043789387081915
  @DF-RHF Final Energy:  -462.90784382806163
    Total Energy =                       -462.9078438280616865
  @DF-RHF Final Energy:  -462.90651427209258
    Total Energy =                       -462.9065142720926360
  @DF-RHF Final Energy:  -462.91019961308371
    Total Energy =                       -462.9101996130837051
  @DF-RHF Final Energy:  -462.91510515287075
    Total Energy =                       -462.9151051528707512
  @DF-RHF Final Energy:  -462.92048769552900
    Total Energy =                       -462.9204876955290047
  @DF-RHF Final Energy:  -462.92081632770811
    Total Energy =                       -462.9208163277080530
  @DF-RHF Final Energy:  -462.92021316887423
    Total Energy =                       -462.9202131688741702
  @DF-RHF Final Energy:  -462.92162472590434
    Total Energy =                       -462.9216247259042802
  @DF-RHF Final Energy:  -462.92260253863469
    Total Energy =                       -462.9226025386346919
  @DF-RHF Final Energy:  -462.92318839838526
    Total Energy =                       -462.9231883983852640
  @DF-RHF Final Energy:  -462.92311864328479
    Total Energy =                       -462.9231186432848517
  @DF-RHF Final Energy:  -462.92338069937722
    Total Energy =                       -462.9233806993772760
  @DF-RHF Final Energy:  -462.92381283846885
    Total Energy =                       -462.9238128384688480
  @DF-RHF Final Energy:  -462.92421298498687
    Total Energy =                       -462.9242129849868661
  @DF-RHF Final Energy:  -462.92406279121030
    Total Energy =                       -462.9240627912103037
  @DF-RHF Final Energy:  -462.92406874550545
    Total Energy =                       -462.9240687455054513
  @DF-RHF Final Energy:  -462.92404437969572
    Total Energy =                       -462.9240443796957152
  @DF-RHF Final Energy:  -462.92411373896556
    Total Energy =                       -462.9241137389655023
  @DF-RHF Final Energy:  -462.92425986374911
    Total Energy =                       -462.9242598637491710
  @DF-RHF Final Energy:  -462.92415941915306
    Total Energy =                       -462.9241594191530567
  @DF-RHF Final Energy:  -462.92412598248279
    Total Energy =                       -462.9241259824827921
  Multiplicity = 1
  Basis Set: CC-PVDZ
    Blend: CC-PVDZ
  Basis Set: (CC-PVDZ AUX)
    Blend: CC-PVDZ-JKFIT

    Orbital Energies [Eh]
    ---------------------

    Doubly Occupied:

       1A    -11.534318     2A    -11.423548     3A    -11.423495
       4A    -11.418614     5A    -11.418505     6A    -11.417962
       7A    -11.401600     8A    -11.399841     9A    -11.391397
      10A    -11.384575    11A    -11.384440    12A    -11.379905
      13A     -1.357264    14A     -1.290566    15A     -1.213825
      16A     -1.197142    17A     -1.159559    18A     -1.151365
      19A     -1.026870    20A     -1.015640    21A     -0.975683
      22A     -0.959481    23A     -0.912864    24A     -0.857678
      25A     -0.817071    26A     -0.814999    27A     -0.789921
      28A     -0.775733    29A     -0.755858    30A     -0.749520
      31A     -0.740932    32A     -0.730199    33A     -0.712577
      34A     -0.696195    35A     -0.660568    36A     -0.649000
      37A     -0.645125    38A     -0.642963    39A     -0.631083
      40A     -0.627540    41A     -0.624797    42A     -0.479244
      43A     -0.477538

  @DF-RHF Final Energy:  -462.92411633486347

   => Energetics <=

    Nuclear Repulsion Energy =            675.4127179193733355
    One-Electron Energy =               -1950.4396716700323395
    Two-Electron Energy =                 812.1028374157955341
    Total Energy =                       -462.9241163348634700

  Dipole Moment: [D]
     X:     2.9901      Y:     1.4599      Z:    -1.2142     Total:     3.5421

  Basis Set: (CC-PVDZ AUX)
    Blend: CC-PVDZ-RI
    Molecular point group: c1
  Basis Set: CC-PVDZ
    Blend: CC-PVDZ
  Basis Set: (CC-PVDZ AUX)
    Blend: CC-PVDZ-JKFIT
  Basis Set: (CC-PVDZ AUX)
    Blend: CC-PVDZ-JKFIT
	 Reference Energy          =    -462.9241163348634700 [Eh]
	 Singles Energy            =      -0.0000000000000000 [Eh]
	 Same-Spin Energy          =      -0.4191221011755775 [Eh]
	 Opposite-Spin Energy      =      -1.2117979087375870 [Eh]
	 Correlation Energy        =      -1.6309200099131644 [Eh]
	 Total Energy              =    -464.5550363447766244 [Eh]

	 ================> DF-SCS-MP2 Energies <==================
	-----------------------------------------------------------
	 SCS Same-Spin Scale       =       0.3333333333333333 [-]
	 SCS Opposite-Spin Scale   =       1.2000000000000000 [-]
	 SCS Same-Spin Energy      =      -0.1397073670585258 [Eh]
	 SCS Opposite-Spin Energy  =      -1.4541574904851042 [Eh]
	 SCS Correlation Energy    =      -1.5938648575436301 [Eh]
	 SCS Total Energy          =    -464.5179811924070918 [Eh]
	-----------------------------------------------------------

  -Total Gradient:
     Atom            X                  Y                   Z
    ------   -----------------  -----------------  -----------------
       1        0.000002916973    -0.000048416514    -0.000065217742
       2       -0.000004383101     0.000097231470     0.000036718261
       3        0.000044041483    -0.000044030951     0.000007941789
       4       -0.000001828553    -0.000011849311    -0.000015700993
       5       -0.000010000905     0.000004899906    -0.000004849924
       6        0.000004528812    -0.000009658996    -0.000005152122
       7        0.000004214828    -0.000000227638    -0.000001632809
       8        0.000009590324     0.000024714907     0.000014735376
       9       -0.000002537189     0.000000080040    -0.000003042716
      10        0.000002369261     0.000002958829     0.000000470596
      11        0.000001672223     0.000000062906     0.000002009920
      12        0.000004010246     0.000002125389     0.000009968306
      13       -0.000003066176    -0.000003722177    -0.000010849991
      14        0.000099861888    -0.000049285893     0.000136861727
      15       -0.000005530001    -0.000014045832    -0.000003596763
      16       -0.000043172932    -0.000001004007    -0.000060081798
      17       -0.000127279613     0.000116425866     0.000000954799
      18        0.000062175271    -0.000052439622     0.000029068273
      19       -0.000068593733     0.000050184676    -0.000024629239
      20        0.000000274540    -0.000013970182    -0.000002141891
      21        0.000008257766    -0.000020566079    -0.000011978802
      22        0.000001981839    -0.000002475601     0.000003265474
      23        0.000017850910     0.000003831016    -0.000000185010
      24       -0.000008669752    -0.000031676858    -0.000040507257
      25       -0.000018854035     0.000002908074    -0.000002914047
      26       -0.000015144437    -0.000011469108    -0.000027875533
      27        0.000045314068     0.000009415687     0.000038362120

  **** Optimization is complete! (in 43 steps) ****
    Final optimized geometry and variables:
    Molecular point group: c1

  Mulliken Charges: (a.u.)
   Center  Symbol    Alpha    Beta     Spin     Total
       1     C     2.96982  2.96982  0.00000  0.06036
       2     C     3.04756  3.04756  0.00000 -0.09511
       3     C     3.03186  3.03186  0.00000 -0.06372
       4     C     3.01427  3.01427  0.00000 -0.02854
       5     C     2.99264  2.99264  0.00000  0.01473
       6     C     2.99665  2.99665  0.00000  0.00670
       7     C     2.99589  2.99589  0.00000  0.00821
       8     C     2.99232  2.99232  0.00000  0.01536
       9     H     0.47785  0.47785  0.00000  0.04430
      10     H     0.46704  0.46704  0.00000  0.06593
      11     H     0.46793  0.46793  0.00000  0.06414
      12     H     0.46908  0.46908  0.00000  0.06184
      13     H     0.48035  0.48035  0.00000  0.03930
      14     C     2.97003  2.97003  0.00000  0.05993
      15     H     0.44524  0.44524  0.00000  0.10952
      16     H     0.44665  0.44665  0.00000  0.10670
      17     C     3.05208  3.05208  0.00000 -0.10415
      18     C     3.03258  3.03258  0.00000 -0.06515
      19     C     3.05212  3.05212  0.00000 -0.10424
      20     H     0.45442  0.45442  0.00000  0.09117
      21     H     0.44421  0.44421  0.00000  0.11158
      22     H     0.44918  0.44918  0.00000  0.10164
      23     H     0.45971  0.45971  0.00000  0.08058
      24     H     0.45441  0.45441  0.00000  0.09117
      25     H     0.44520  0.44520  0.00000  0.10961
      26     H     0.44669  0.44669  0.00000  0.10662
      27     H     0.44424  0.44424  0.00000  0.11152

   Total alpha = 43.00000, Total beta = 43.00000, Total charge =  1.00000

    Molecular point group: c1

    Geometry (in Angstrom), charge = 1, multiplicity = 1:

       Center              X                  Y                   Z               Mass
    ------------   -----------------  -----------------  -----------------  -----------------
         C            1.425056003475     1.462642754007     0.500390918691    12.000000000000
         C            0.506015663420     0.794494161141    -0.401329652114    12.000000000000
         C           -0.687467939282     0.111436701139     0.119689098389    12.000000000000
         C           -0.692581539549    -1.215206586661     0.598018780098    12.000000000000
         C           -1.893694307828    -1.764950276072     1.073167245469    12.000000000000
         C           -3.074057610775    -1.006414521991     1.073197801818    12.000000000000
         C           -3.060848619460     0.313821303586     0.595154849046    12.000000000000
         C           -1.872652042189     0.883945328722     0.115268157147    12.000000000000
         H           -1.868369935673     1.913465700398    -0.256284723730     1.007825032230
         H           -3.977173308145     0.910139701577     0.592425066336     1.007825032230
         H           -4.004210231556    -1.443235151447     1.445376604402     1.007825032230
         H           -1.899564874832    -2.793195615898     1.444360346993     1.007825032230
         H            0.218900181462    -1.817463567391     0.603453054031     1.007825032230
         C            0.893232151687     0.642597126731    -1.791247362760    12.000000000000
         H            0.084032104657     0.280695992335    -2.437696761318     1.007825032230
         H            1.409325351466     1.522526637924    -2.201968830067     1.007825032230
         C            2.003838859184    -0.515109267042    -1.644254522177    12.000000000000
         C            3.107054043743    -0.062171600837    -0.697927406458    12.000000000000
         C            2.537516914692     0.308513718718     0.664289839188    12.000000000000
         H            2.087311661567    -0.560201832608     1.170430820572     1.007825032230
         H            3.285505009436     0.742789974697     1.346364020757     1.007825032230
         H            3.837440432129    -0.880453363158    -0.574871839334     1.007825032230
         H            3.650909309403     0.795401499632    -1.129510426513     1.007825032230
         H            1.518678534004    -1.440585848322    -1.295339863661     1.007825032230
         H            0.994314548954     1.686004938350     1.484344924865     1.007825032230
         H            1.933618773431     2.326230628538     0.047837608444     1.007825032230
         H            2.357006269054    -0.689629049008    -2.672887086946     1.007825032230

*** Psi4 exiting successfully. Buy a developer a beer!
