                               Psi4 1.4 release

  ==> Input File <==

--------------------------------------------------------------------------
memory 32 GB

molecule mol {
1 1
C            1.425056003475     1.462642754007     0.500390918691
    C            0.506015663420     0.794494161141    -0.401329652114
    C           -0.687467939282     0.111436701139     0.119689098389
    C           -0.692581539549    -1.215206586661     0.598018780098
    C           -1.893694307828    -1.764950276072     1.073167245469
    C           -3.074057610775    -1.006414521991     1.073197801818
    C           -3.060848619460     0.313821303586     0.595154849046
    C           -1.872652042189     0.883945328722     0.115268157147
    H           -1.868369935673     1.913465700398    -0.256284723730
    H           -3.977173308145     0.910139701577     0.592425066336
    H           -4.004210231556    -1.443235151447     1.445376604402
    H           -1.899564874832    -2.793195615898     1.444360346993
    H            0.218900181462    -1.817463567391     0.603453054031
    C            0.893232151687     0.642597126731    -1.791247362760
    H            0.084032104657     0.280695992335    -2.437696761318
    H            1.409325351466     1.522526637924    -2.201968830067
    C            2.003838859184    -0.515109267042    -1.644254522177
    C            3.107054043743    -0.062171600837    -0.697927406458
    C            2.537516914692     0.308513718718     0.664289839188
    H            2.087311661567    -0.560201832608     1.170430820572
    H            3.285505009436     0.742789974697     1.346364020757
    H            3.837440432129    -0.880453363158    -0.574871839334
    H            3.650909309403     0.795401499632    -1.129510426513
    H            1.518678534004    -1.440585848322    -1.295339863661
    H            0.994314548954     1.686004938350     1.484344924865
    H            1.933618773431     2.326230628538     0.047837608444
    H            2.357006269054    -0.689629049008    -2.672887086946
}

set scf_type df
set basis cc-pVDZ
set reference rhf

mol.update_geometry()
mol.symmetrize(1e-3)

e, wfn = frequencies('mp2', return_wfn=True)
oeprop(wfn, "MULLIKEN_CHARGES")
mol.print_out()
print_variables()
--------------------------------------------------------------------------

    Molecular point group: c1
  Charge       = 1
  Multiplicity = 1
  Basis Set: CC-PVDZ
    Blend: CC-PVDZ
  Basis Set: (CC-PVDZ AUX)
    Blend: CC-PVDZ-JKFIT
  @DF-RHF Final Energy:  -462.92411633548738
    Total Energy =                       -462.9241163354873834
  Basis Set: (CC-PVDZ AUX)
    Blend: CC-PVDZ-RI
    Molecular point group: c1
  Basis Set: CC-PVDZ
    Blend: CC-PVDZ
  Basis Set: (CC-PVDZ AUX)
    Blend: CC-PVDZ-JKFIT
  Basis Set: (CC-PVDZ AUX)
    Blend: CC-PVDZ-JKFIT
	 Reference Energy          =    -462.9241163354873834 [Eh]
	 Singles Energy            =      -0.0000000000000000 [Eh]
	 Same-Spin Energy          =      -0.4191221014612589 [Eh]
	 Opposite-Spin Energy      =      -1.2117979091302256 [Eh]
	 Correlation Energy        =      -1.6309200105914845 [Eh]
	 Total Energy              =    -464.5550363460788503 [Eh]
	 SCS Total Energy          =    -464.5179811935973930 [Eh]
  @DF-RHF Final Energy:  -462.92411633573431
    Total Energy =                       -462.9241163357343112
  @DF-RHF Final Energy:  -462.92409710969588
    Total Energy =                       -462.9240971096958219
  @DF-RHF Final Energy:  -462.92413451567802
    Total Energy =                       -462.9241345156780199
  @DF-RHF Final Energy:  -462.92411875092699
    Total Energy =                       -462.9241187509270503
  @DF-RHF Final Energy:  -462.92411269149704
    Total Energy =                       -462.9241126914970437
  @DF-RHF Final Energy:  -462.92410087202063
    Total Energy =                       -462.9241008720206310
  @DF-RHF Final Energy:  -462.92413008625670
    Total Energy =                       -462.9241300862566959
  @DF-RHF Final Energy:  -462.92411731842196
    Total Energy =                       -462.9241173184219633
  @DF-RHF Final Energy:  -462.92411413372656
    Total Energy =                       -462.9241141337265617
  @DF-RHF Final Energy:  -462.92410920580176
    Total Energy =                       -462.9241092058017557
  @DF-RHF Final Energy:  -462.92412255310023
    Total Energy =                       -462.9241225531002328
  @DF-RHF Final Energy:  -462.92411476517611
    Total Energy =                       -462.9241147651761139
  @DF-RHF Final Energy:  -462.92411654713680
    Total Energy =                       -462.9241165471368049
  @DF-RHF Final Energy:  -462.92415033492830
    Total Energy =                       -462.9241503349282993
  @DF-RHF Final Energy:  -462.92408094225578
    Total Energy =                       -462.9240809422558414
  @DF-RHF Final Energy:  -462.92412721610663
    Total Energy =                       -462.9241272161066263
  @DF-RHF Final Energy:  -462.92410410909645
    Total Energy =                       -462.9241041090964472
  @DF-RHF Final Energy:  -462.92410178153182
    Total Energy =                       -462.9241017815318173
  @DF-RHF Final Energy:  -462.92413026847566
    Total Energy =                       -462.9241302684756647
  @DF-RHF Final Energy:  -462.92413320059484
    Total Energy =                       -462.9241332005948379
  @DF-RHF Final Energy:  -462.92409727381846
    Total Energy =                       -462.9240972738184610
  @DF-RHF Final Energy:  -462.92413342617704
    Total Energy =                       -462.9241334261770362
  @DF-RHF Final Energy:  -462.92409540203715
    Total Energy =                       -462.9240954020372101
  @DF-RHF Final Energy:  -462.92414362434249
    Total Energy =                       -462.9241436243424914
  @DF-RHF Final Energy:  -462.92408516206922
    Total Energy =                       -462.9240851620692183
  @DF-RHF Final Energy:  -462.92410968654423
    Total Energy =                       -462.9241096865442842
  @DF-RHF Final Energy:  -462.92412043208606
    Total Energy =                       -462.9241204320860561
  @DF-RHF Final Energy:  -462.92408915175849
    Total Energy =                       -462.9240891517584942
  @DF-RHF Final Energy:  -462.92414006737295
    Total Energy =                       -462.9241400673729459
  @DF-RHF Final Energy:  -462.92408049633286
    Total Energy =                       -462.9240804963328628
  @DF-RHF Final Energy:  -462.92414741430878
    Total Energy =                       -462.9241474143087771
  @DF-RHF Final Energy:  -462.92414341747013
    Total Energy =                       -462.9241434174700771
  @DF-RHF Final Energy:  -462.92408569626235
    Total Energy =                       -462.9240856962622956
  @DF-RHF Final Energy:  -462.92404732325190
    Total Energy =                       -462.9240473232518980
  @DF-RHF Final Energy:  -462.92417768424428
    Total Energy =                       -462.9241776842443414
  @DF-RHF Final Energy:  -462.92412798594398
    Total Energy =                       -462.9241279859439828
  @DF-RHF Final Energy:  -462.92409827577444
    Total Energy =                       -462.9240982757744405
  @DF-RHF Final Energy:  -462.92409017001648
    Total Energy =                       -462.9240901700164841
  Charge       = 1
  Multiplicity = 1
  Basis Set: CC-PVDZ
    Blend: CC-PVDZ
  Basis Set: (CC-PVDZ AUX)
    Blend: CC-PVDZ-JKFIT

    Orbital Energies [Eh]
    ---------------------

    Doubly Occupied:

       1A    -11.534286     2A    -11.423514     3A    -11.423489
       4A    -11.418608     5A    -11.418379     6A    -11.417952
       7A    -11.401597     8A    -11.399835     9A    -11.391397
      10A    -11.384572    11A    -11.384437    12A    -11.379901
      13A     -1.357276    14A     -1.290574    15A     -1.213843
      16A     -1.197197    17A     -1.159555    18A     -1.151376
      19A     -1.026946    20A     -1.015653    21A     -0.975687
      22A     -0.959526    23A     -0.912866    24A     -0.857676
      25A     -0.817086    26A     -0.815044    27A     -0.789989
      28A     -0.775764    29A     -0.755922    30A     -0.749540
      31A     -0.740956    32A     -0.730197    33A     -0.712592
      34A     -0.696319    35A     -0.660553    36A     -0.649020
      37A     -0.645128    38A     -0.642988    39A     -0.631097
      40A     -0.627563    41A     -0.624821    42A     -0.479241
      43A     -0.477535

  @DF-RHF Final Energy:  -462.92413862522073

   => Energetics <=

    Nuclear Repulsion Energy =            675.4266843960923552
    One-Electron Energy =               -1950.4666533978804637
    Two-Electron Energy =                 812.1158303765672599
    Total Energy =                       -462.9241386252207349

  Dipole Moment: [D]
     X:     2.9908      Y:     1.4596      Z:    -1.2149     Total:     3.5427

  Basis Set: (CC-PVDZ AUX)
    Blend: CC-PVDZ-RI
    Molecular point group: c1
  Basis Set: CC-PVDZ
    Blend: CC-PVDZ
  Basis Set: (CC-PVDZ AUX)
    Blend: CC-PVDZ-JKFIT
  Basis Set: (CC-PVDZ AUX)
    Blend: CC-PVDZ-JKFIT
	 Reference Energy          =    -462.9241386252207349 [Eh]
	 Singles Energy            =      -0.0000000000000000 [Eh]
	 Same-Spin Energy          =      -0.4191203423503227 [Eh]
	 Opposite-Spin Energy      =      -1.2117753445214841 [Eh]
	 Correlation Energy        =      -1.6308956868718067 [Eh]
	 Total Energy              =    -464.5550343120925163 [Eh]

	 ================> DF-SCS-MP2 Energies <==================
	-----------------------------------------------------------
	 SCS Same-Spin Scale       =       0.3333333333333333 [-]
	 SCS Opposite-Spin Scale   =       1.2000000000000000 [-]
	 SCS Same-Spin Energy      =      -0.1397067807834409 [Eh]
	 SCS Opposite-Spin Energy  =      -1.4541304134257809 [Eh]
	 SCS Correlation Energy    =      -1.5938371942092218 [Eh]
	 SCS Total Energy          =    -464.5179758194299779 [Eh]
	-----------------------------------------------------------

  -Total Gradient:
     Atom            X                  Y                   Z
    ------   -----------------  -----------------  -----------------
       1        0.000114585270     0.000269671852    -0.000017468703
       2        0.000020370505     0.000143895578     0.000002004081
       3        0.000053956339    -0.000050472048     0.000015403940
       4       -0.000003133362    -0.000013935374    -0.000016951785
       5       -0.000009909719     0.000005697762    -0.000005147172
       6        0.000004214303    -0.000009651962    -0.000005023187
       7        0.000004817767    -0.000002323464    -0.000002438914
       8        0.000011856053     0.000030231950     0.000015243019
       9       -0.000002643023     0.000000143932    -0.000002610514
      10        0.000002624736     0.000003247726     0.000000034058
      11        0.000001646876     0.000000187432     0.000002149648
      12        0.000004137083     0.000002207751     0.000010081253
      13       -0.000003159624    -0.000002780613    -0.000011015054
      14        0.000131926631    -0.000070098886     0.000085760760
      15       -0.000007925198    -0.000013524883    -0.000001395445
      16       -0.000043399345     0.000001374676    -0.000057384502
      17        0.000126670459    -0.000104135795    -0.000832757921
      18        0.000093483233    -0.000056540610    -0.000011621299
      19       -0.000075418516     0.000089199177    -0.000057005816
      20       -0.000005920863    -0.000009566505    -0.000004201510
      21        0.000010693630    -0.000021422582    -0.000013709310
      22        0.000001845223    -0.000003542358     0.000002145860
      23        0.000018020509     0.000003775654     0.000002595046
      24       -0.000025411569    -0.000028759257     0.000002957356
      25       -0.000055942142    -0.000068153299     0.000022874194
      26       -0.000130636154    -0.000351329940    -0.000042972183
      27       -0.000237349099     0.000256604081     0.000920454102

  Vibration                       1                   8                   9
  Freq [cm^-1]                138.5335i            91.6824             94.6150
  Irrep                           A                   A                   A
  Reduced mass [u]              3.6906              3.5405              3.5968
  Force const [mDyne/A]        -0.0417              0.0175              0.0190

  Vibration                       10                  11                  12
  Freq [cm^-1]                 149.5575            191.0652            282.3720
  Irrep                           A                   A                   A
  Reduced mass [u]              2.8464              4.5945              2.3649
  Force const [mDyne/A]         0.0375              0.0988              0.1111

  Vibration                       13                  14                  15
  Freq [cm^-1]                 293.1891            329.5320            363.1181
  Irrep                           A                   A                   A
  Reduced mass [u]              3.4635              3.0426              2.1323
  Force const [mDyne/A]         0.1754              0.1947              0.1656

  Vibration                       16                  17                  18
  Freq [cm^-1]                 372.1960            505.4788            535.0911
  Irrep                           A                   A                   A
  Reduced mass [u]              3.1886              1.9836              2.4278
  Force const [mDyne/A]         0.2603              0.2986              0.4096

  Vibration                       19                  20                  21
  Freq [cm^-1]                 540.8484            610.2732            654.8531
  Irrep                           A                   A                   A
  Reduced mass [u]              3.5358              6.2927              4.6419
  Force const [mDyne/A]         0.6094              1.3808              1.1728

  Vibration                       22                  23                  24
  Freq [cm^-1]                 698.3403            720.9158            742.4861
  Irrep                           A                   A                   A
  Reduced mass [u]              2.1254              4.4775              1.2654
  Force const [mDyne/A]         0.6107              1.3710              0.4110

  Vibration                       25                  26                  27
  Freq [cm^-1]                 755.8791            823.7891            827.1133
  Irrep                           A                   A                   A
  Reduced mass [u]              3.9143              3.2590              1.7349
  Force const [mDyne/A]         1.3177              1.3031              0.6993

  Vibration                       28                  29                  30
  Freq [cm^-1]                 837.3287            874.2747            909.8115
  Irrep                           A                   A                   A
  Reduced mass [u]              1.2334              1.6494              1.2231
  Force const [mDyne/A]         0.5095              0.7428              0.5965

  Vibration                       31                  32                  33
  Freq [cm^-1]                 935.2285            958.7885            962.5900
  Irrep                           A                   A                   A
  Reduced mass [u]              2.3801              1.2823              1.3273
  Force const [mDyne/A]         1.2265              0.6945              0.7246

  Vibration                       34                  35                  36
  Freq [cm^-1]                 964.3315            982.2974            999.6505
  Irrep                           A                   A                   A
  Reduced mass [u]              1.8593              1.2078              5.0379
  Force const [mDyne/A]         1.0187              0.6866              2.9662

  Vibration                       37                  38                  39
  Freq [cm^-1]                1021.2311           1024.8019           1050.5294
  Irrep                           A                   A                   A
  Reduced mass [u]              2.4744              1.3933              2.1685
  Force const [mDyne/A]         1.5204              0.8622              1.4100

  Vibration                       40                  41                  42
  Freq [cm^-1]                1086.5728           1090.0846           1100.2931
  Irrep                           A                   A                   A
  Reduced mass [u]              1.1076              1.3157              1.5629
  Force const [mDyne/A]         0.7704              0.9212              1.1148

  Vibration                       43                  44                  45
  Freq [cm^-1]                1117.2075           1185.6574           1186.6848
  Irrep                           A                   A                   A
  Reduced mass [u]              1.6203              1.4712              1.0690
  Force const [mDyne/A]         1.1916              1.2186              0.8870

  Vibration                       46                  47                  48
  Freq [cm^-1]                1204.6691           1207.2992           1217.4477
  Irrep                           A                   A                   A
  Reduced mass [u]              1.3329              1.2563              1.1587
  Force const [mDyne/A]         1.1397              1.0789              1.0119

  Vibration                       49                  50                  51
  Freq [cm^-1]                1257.5121           1273.7527           1277.8973
  Irrep                           A                   A                   A
  Reduced mass [u]              1.3977              1.3389              1.1634
  Force const [mDyne/A]         1.3022              1.2799              1.1193

  Vibration                       52                  53                  54
  Freq [cm^-1]                1316.4604           1336.8451           1377.7714
  Irrep                           A                   A                   A
  Reduced mass [u]              1.4575              1.4198              1.5113
  Force const [mDyne/A]         1.4883              1.4950              1.6903

  Vibration                       55                  56                  57
  Freq [cm^-1]                1391.8630           1414.1605           1451.6121
  Irrep                           A                   A                   A
  Reduced mass [u]              1.6440              2.1765              2.3959
  Force const [mDyne/A]         1.8765              2.5646              2.9746

  Vibration                       58                  59                  60
  Freq [cm^-1]                1466.1426           1470.4574           1483.2361
  Irrep                           A                   A                   A
  Reduced mass [u]              1.0946              1.1090              3.6842
  Force const [mDyne/A]         1.3863              1.4128              4.7754

  Vibration                       61                  62                  63
  Freq [cm^-1]                1488.8770           1510.0494           1519.6698
  Irrep                           A                   A                   A
  Reduced mass [u]              1.2377              1.7563              1.6671
  Force const [mDyne/A]         1.6165              2.3596              2.2683

  Vibration                       64                  65                  66
  Freq [cm^-1]                1529.2525           1622.0695           1643.7826
  Irrep                           A                   A                   A
  Reduced mass [u]              1.5997              5.6120              5.8949
  Force const [mDyne/A]         2.2042              8.6998              9.3846

  Vibration                       67                  68                  69
  Freq [cm^-1]                3100.0447           3120.6753           3122.5149
  Irrep                           A                   A                   A
  Reduced mass [u]              1.0615              1.0623              1.0599
  Force const [mDyne/A]         6.0107              6.0955              6.0888

  Vibration                       70                  71                  72
  Freq [cm^-1]                3130.7895           3134.9937           3160.3830
  Irrep                           A                   A                   A
  Reduced mass [u]              1.0587              1.0582              1.1040
  Force const [mDyne/A]         6.1139              6.1275              6.4971

  Vibration                       73                  74                  75
  Freq [cm^-1]                3189.6625           3191.4845           3226.8076
  Irrep                           A                   A                   A
  Reduced mass [u]              1.1059              1.1063              1.0893
  Force const [mDyne/A]         6.6294              6.6391              6.6825

  Vibration                       76                  77                  78
  Freq [cm^-1]                3230.9432           3233.4570           3241.2204
  Irrep                           A                   A                   A
  Reduced mass [u]              1.1114              1.1127              1.0870
  Force const [mDyne/A]         6.8357              6.8541              6.7284

  Vibration                       79                  80                  81
  Freq [cm^-1]                3250.1060           3257.6247           3266.2231
  Irrep                           A                   A                   A
  Reduced mass [u]              1.0918              1.0961              1.1008
  Force const [mDyne/A]         6.7950              6.8536              6.9193

  ==> Thermochemistry Components <==

  Entropy, S
    Electronic S            0.000 [cal/(mol K)]        0.000 [J/(mol K)]       0.00000000 [mEh/K] (multiplicity = 1)
    Translational S        41.102 [cal/(mol K)]      171.973 [J/(mol K)]       0.06550099 [mEh/K] (mol. weight = 159.1174 [u], P = 101325.00 [Pa])
    Rotational S           30.537 [cal/(mol K)]      127.767 [J/(mol K)]       0.04866383 [mEh/K] (symmetry no. = 1)
    Vibrational S          24.675 [cal/(mol K)]      103.238 [J/(mol K)]       0.03932142 [mEh/K]
  Total S                  96.314 [cal/(mol K)]      402.978 [J/(mol K)]       0.15348624 [mEh/K]
  Correction S              0.000 [cal/(mol K)]        0.000 [J/(mol K)]       0.00000000 [mEh/K]

  Constant volume heat capacity, Cv
    Electronic Cv           0.000 [cal/(mol K)]        0.000 [J/(mol K)]       0.00000000 [mEh/K]
    Translational Cv        2.981 [cal/(mol K)]       12.472 [J/(mol K)]       0.00475022 [mEh/K]
    Rotational Cv           2.981 [cal/(mol K)]       12.472 [J/(mol K)]       0.00475022 [mEh/K]
    Vibrational Cv         34.655 [cal/(mol K)]      144.995 [J/(mol K)]       0.05522564 [mEh/K]
  Total Cv                 40.616 [cal/(mol K)]      169.938 [J/(mol K)]       0.06472607 [mEh/K]
  Correction Cv             0.000 [cal/(mol K)]        0.000 [J/(mol K)]       0.00000000 [mEh/K]

  Constant pressure heat capacity, Cp
    Electronic Cp           0.000 [cal/(mol K)]        0.000 [J/(mol K)]       0.00000000 [mEh/K]
    Translational Cp        4.968 [cal/(mol K)]       20.786 [J/(mol K)]       0.00791703 [mEh/K]
    Rotational Cp           2.981 [cal/(mol K)]       12.472 [J/(mol K)]       0.00475022 [mEh/K]
    Vibrational Cp         34.655 [cal/(mol K)]      144.995 [J/(mol K)]       0.05522564 [mEh/K]
  Total Cp                 42.603 [cal/(mol K)]      178.253 [J/(mol K)]       0.06789289 [mEh/K]
  Correction Cp             0.000 [cal/(mol K)]        0.000 [J/(mol K)]       0.00000000 [mEh/K]

  ==> Thermochemistry Energy Analysis <==

  Raw electronic energy, E0
  Total E0, Electronic energy at well bottom at 0 [K]                 -464.55503635 [Eh]

  Zero-point energy, ZPE_vib = Sum_i nu_i / 2
    Electronic ZPE          0.000 [kcal/mol]        0.000 [kJ/mol]       0.00000000 [Eh]
    Translational ZPE       0.000 [kcal/mol]        0.000 [kJ/mol]       0.00000000 [Eh]
    Rotational ZPE          0.000 [kcal/mol]        0.000 [kJ/mol]       0.00000000 [Eh]
    Vibrational ZPE       150.373 [kcal/mol]      629.161 [kJ/mol]       0.23963479 [Eh]       52593.758 [cm^-1]
  Correction ZPE          150.373 [kcal/mol]      629.161 [kJ/mol]       0.23963479 [Eh]       52593.758 [cm^-1]
  Total ZPE, Electronic energy at 0 [K]                               -464.31540155 [Eh]

  Thermal Energy, E (includes ZPE)
    Electronic E            0.000 [kcal/mol]        0.000 [kJ/mol]       0.00000000 [Eh]
    Translational E         0.889 [kcal/mol]        3.718 [kJ/mol]       0.00141628 [Eh]
    Rotational E            0.889 [kcal/mol]        3.718 [kJ/mol]       0.00141628 [Eh]
    Vibrational E         154.732 [kcal/mol]      647.401 [kJ/mol]       0.24658191 [Eh]
  Correction E            156.510 [kcal/mol]      654.838 [kJ/mol]       0.24941446 [Eh]
  Total E, Electronic energy at  298.15 [K]                           -464.30562189 [Eh]

  Enthalpy, H_trans = E_trans + k_B * T
    Electronic H            0.000 [kcal/mol]        0.000 [kJ/mol]       0.00000000 [Eh]
    Translational H         1.481 [kcal/mol]        6.197 [kJ/mol]       0.00236046 [Eh]
    Rotational H            0.889 [kcal/mol]        3.718 [kJ/mol]       0.00141628 [Eh]
    Vibrational H         154.732 [kcal/mol]      647.401 [kJ/mol]       0.24658191 [Eh]
  Correction H            157.102 [kcal/mol]      657.317 [kJ/mol]       0.25035864 [Eh]
  Total H, Enthalpy at  298.15 [K]                                    -464.30467770 [Eh]

  Gibbs free energy, G = H - T * S
    Electronic G            0.000 [kcal/mol]        0.000 [kJ/mol]       0.00000000 [Eh]
    Translational G       -10.773 [kcal/mol]      -45.076 [kJ/mol]      -0.01716866 [Eh]
    Rotational G           -8.216 [kcal/mol]      -34.375 [kJ/mol]      -0.01309284 [Eh]
    Vibrational G         147.376 [kcal/mol]      616.620 [kJ/mol]       0.23485822 [Eh]
  Correction G            128.386 [kcal/mol]      537.169 [kJ/mol]       0.20459672 [Eh]
  Total G, Free enthalpy at  298.15 [K]                               -464.35043963 [Eh]

  Mulliken Charges: (a.u.)
   Center  Symbol    Alpha    Beta     Spin     Total
       1     C     2.96982  2.96982  0.00000  0.06036
       2     C     3.04756  3.04756  0.00000 -0.09511
       3     C     3.03186  3.03186  0.00000 -0.06372
       4     C     3.01427  3.01427  0.00000 -0.02854
       5     C     2.99264  2.99264  0.00000  0.01473
       6     C     2.99665  2.99665  0.00000  0.00670
       7     C     2.99589  2.99589  0.00000  0.00821
       8     C     2.99232  2.99232  0.00000  0.01536
       9     H     0.47785  0.47785  0.00000  0.04430
      10     H     0.46704  0.46704  0.00000  0.06593
      11     H     0.46793  0.46793  0.00000  0.06414
      12     H     0.46908  0.46908  0.00000  0.06184
      13     H     0.48035  0.48035  0.00000  0.03930
      14     C     2.97003  2.97003  0.00000  0.05993
      15     H     0.44524  0.44524  0.00000  0.10952
      16     H     0.44665  0.44665  0.00000  0.10670
      17     C     3.05208  3.05208  0.00000 -0.10415
      18     C     3.03258  3.03258  0.00000 -0.06515
      19     C     3.05212  3.05212  0.00000 -0.10424
      20     H     0.45442  0.45442  0.00000  0.09117
      21     H     0.44421  0.44421  0.00000  0.11158
      22     H     0.44918  0.44918  0.00000  0.10164
      23     H     0.45971  0.45971  0.00000  0.08058
      24     H     0.45441  0.45441  0.00000  0.09117
      25     H     0.44520  0.44520  0.00000  0.10961
      26     H     0.44669  0.44669  0.00000  0.10662
      27     H     0.44424  0.44424  0.00000  0.11152

   Total alpha = 43.00000, Total beta = 43.00000, Total charge =  1.00000

    Molecular point group: c1

    Geometry (in Angstrom), charge = 1, multiplicity = 1:

       Center              X                  Y                   Z               Mass
    ------------   -----------------  -----------------  -----------------  -----------------
         C            1.425056003475     1.462642754007     0.500390918691    12.000000000000
         C            0.506015663420     0.794494161141    -0.401329652114    12.000000000000
         C           -0.687467939282     0.111436701139     0.119689098389    12.000000000000
         C           -0.692581539549    -1.215206586661     0.598018780098    12.000000000000
         C           -1.893694307828    -1.764950276072     1.073167245469    12.000000000000
         C           -3.074057610775    -1.006414521991     1.073197801818    12.000000000000
         C           -3.060848619460     0.313821303586     0.595154849046    12.000000000000
         C           -1.872652042189     0.883945328722     0.115268157147    12.000000000000
         H           -1.868369935673     1.913465700398    -0.256284723730     1.007825032230
         H           -3.977173308145     0.910139701577     0.592425066336     1.007825032230
         H           -4.004210231556    -1.443235151447     1.445376604402     1.007825032230
         H           -1.899564874832    -2.793195615898     1.444360346993     1.007825032230
         H            0.218900181462    -1.817463567391     0.603453054031     1.007825032230
         C            0.893232151687     0.642597126731    -1.791247362760    12.000000000000
         H            0.084032104657     0.280695992335    -2.437696761318     1.007825032230
         H            1.409325351466     1.522526637924    -2.201968830067     1.007825032230
         C            2.003838859184    -0.515109267042    -1.644254522177    12.000000000000
         C            3.107054043743    -0.062171600837    -0.697927406458    12.000000000000
         C            2.537516914692     0.308513718718     0.664289839188    12.000000000000
         H            2.087311661567    -0.560201832608     1.170430820572     1.007825032230
         H            3.285505009436     0.742789974697     1.346364020757     1.007825032230
         H            3.837440432129    -0.880453363158    -0.574871839334     1.007825032230
         H            3.650909309403     0.795401499632    -1.129510426513     1.007825032230
         H            1.518678534004    -1.440585848322    -1.295339863661     1.007825032230
         H            0.994314548954     1.686004938350     1.484344924865     1.007825032230
         H            1.933618773431     2.326230628538     0.047837608444     1.007825032230
         H            2.357006269054    -0.689629049008    -2.672887086946     1.007825032230

*** Psi4 exiting successfully. Buy a developer a beer!
