                               Psi4 1.4 release

  ==> Input File <==

--------------------------------------------------------------------------
molecule mol {
0 1
 C     0.355130     0.111221    -1.467412
 C    -0.000000    -0.000000     0.000000
 C     0.828100     0.881905     0.953535
 C     2.091555     0.051810     1.254924
 C     2.370953    -0.722993    -0.049363
 C     0.983556    -0.988346    -0.633510
 C    -1.373576    -0.413221     0.414448
 C    -1.542792    -1.321567     1.480545
 C    -2.825059    -1.692334     1.911870
 C    -3.961673    -1.159299     1.279913
 C    -3.805653    -0.253936     0.218219
 C    -2.519836     0.117392    -0.208007
 H    -2.398432     0.829298    -1.030811
 H    -4.686419     0.165723    -0.277661
Cl    -5.553554    -1.622698     1.807905
 H    -2.939181    -2.402495     2.736730
 H    -0.656700    -1.746978     1.964470
 H     0.659437    -2.015061    -0.827996
 H    -0.405740    -0.188168    -2.193765
 H     0.996446     0.943276    -1.777222
 H     2.921789    -1.659184     0.134099
 H     2.979683    -0.115336    -0.742780
 H     1.856488    -0.672951     2.054626
 H     2.945544     0.661232     1.596113
 H     0.256631     1.122533     1.863868
 H     1.092347     1.837771     0.466059
}

set scf_type df
set basis cc-pVTZ
set reference rhf

mol.update_geometry()
mol.symmetrize(1e-3)

e, wfn = optimize('mp2', return_wfn=True)
oeprop(wfn, "MULLIKEN_CHARGES")
mol.print_out()
print_variables()
--------------------------------------------------------------------------

    Molecular point group: c1
  Charge       = 0
  Multiplicity = 1
  Basis Set: CC-PVTZ
    Blend: CC-PVTZ
  Basis Set: (CC-PVTZ AUX)
    Blend: CC-PVTZ-JKFIT
  @DF-RHF Final Energy:  -921.61796842801732
    Total Energy =                       -921.6179684280173205
  Basis Set: (CC-PVTZ AUX)
    Blend: CC-PVTZ-RI
    Molecular point group: c1
  Basis Set: CC-PVTZ
    Blend: CC-PVTZ
  Basis Set: (CC-PVTZ AUX)
    Blend: CC-PVTZ-JKFIT
  Basis Set: (CC-PVTZ AUX)
    Blend: CC-PVTZ-JKFIT
	 Reference Energy          =    -921.6179684280173205 [Eh]
	 Singles Energy            =      -0.0000000000000000 [Eh]
	 Same-Spin Energy          =      -0.5772359734980257 [Eh]
	 Opposite-Spin Energy      =      -1.7902524043505066 [Eh]
	 Correlation Energy        =      -2.3674883778485323 [Eh]
	 Total Energy              =    -923.9854568058658515 [Eh]
	 SCS Total Energy          =    -923.9586833044039622 [Eh]
  @DF-RHF Final Energy:  -921.62477797979705
    Total Energy =                       -921.6247779797970452
  @DF-RHF Final Energy:  -921.62481972352805
    Total Energy =                       -921.6248197235281623
  @DF-RHF Final Energy:  -921.62472095550299
    Total Energy =                       -921.6247209555028803
  @DF-RHF Final Energy:  -921.62435629494485
    Total Energy =                       -921.6243562949448460
  @DF-RHF Final Energy:  -921.62429041901623
    Total Energy =                       -921.6242904190162335
  @DF-RHF Final Energy:  -921.62412213408356
    Total Energy =                       -921.6241221340835637
  @DF-RHF Final Energy:  -921.62411870280312
    Total Energy =                       -921.6241187028031163
  Multiplicity = 1
  Basis Set: CC-PVTZ
    Blend: CC-PVTZ
  Basis Set: (CC-PVTZ AUX)
    Blend: CC-PVTZ-JKFIT

    Orbital Energies [Eh]
    ---------------------

    Doubly Occupied:

       1A   -104.833698     2A    -11.294021     3A    -11.243928
       4A    -11.243094     5A    -11.242444     6A    -11.238161
       7A    -11.237240     8A    -11.236299     9A    -11.227478
      10A    -11.225204    11A    -11.221303    12A    -11.220356
      13A    -11.219420    14A    -10.559034    15A     -8.025952
      16A     -8.024049    17A     -8.024015    18A     -1.201774
      19A     -1.181546    20A     -1.116384    21A     -1.044924
      22A     -1.028432    23A     -1.006323    24A     -0.957757
      25A     -0.857203    26A     -0.839118    27A     -0.818920
      28A     -0.785144    29A     -0.753053    30A     -0.708924
      31A     -0.657982    32A     -0.650752    33A     -0.639018
      34A     -0.628694    35A     -0.600841    36A     -0.585203
      37A     -0.575050    38A     -0.573173    39A     -0.544003
      40A     -0.531227    41A     -0.513177    42A     -0.490299
      43A     -0.488589    44A     -0.479511    45A     -0.476875
      46A     -0.459136    47A     -0.449640    48A     -0.415506
      49A     -0.397998    50A     -0.348833    51A     -0.315783

  @DF-RHF Final Energy:  -921.62407890174336

   => Energetics <=

    Nuclear Repulsion Energy =            838.7488055435383103
    One-Electron Energy =               -2925.8728021618062485
    Two-Electron Energy =                1165.4999177165245783
    Total Energy =                       -921.6240789017433599

  Dipole Moment: [D]
     X:     2.3287      Y:     0.5654      Z:    -0.6347     Total:     2.4789

  Basis Set: (CC-PVTZ AUX)
    Blend: CC-PVTZ-RI
    Molecular point group: c1
  Basis Set: CC-PVTZ
    Blend: CC-PVTZ
  Basis Set: (CC-PVTZ AUX)
    Blend: CC-PVTZ-JKFIT
  Basis Set: (CC-PVTZ AUX)
    Blend: CC-PVTZ-JKFIT
	 Reference Energy          =    -921.6240789017433599 [Eh]
	 Singles Energy            =      -0.0000000000000000 [Eh]
	 Same-Spin Energy          =      -0.5783595999803185 [Eh]
	 Opposite-Spin Energy      =      -1.7887975056355052 [Eh]
	 Correlation Energy        =      -2.3671571056158238 [Eh]
	 Total Energy              =    -923.9912360073591344 [Eh]

	 ================> DF-SCS-MP2 Energies <==================
	-----------------------------------------------------------
	 SCS Same-Spin Scale       =       0.3333333333333333 [-]
	 SCS Opposite-Spin Scale   =       1.2000000000000000 [-]
	 SCS Same-Spin Energy      =      -0.1927865333267728 [Eh]
	 SCS Opposite-Spin Energy  =      -2.1465570067626061 [Eh]
	 SCS Correlation Energy    =      -2.3393435400893789 [Eh]
	 SCS Total Energy          =    -923.9634224418327904 [Eh]
	-----------------------------------------------------------

  -Total Gradient:
     Atom            X                  Y                   Z
    ------   -----------------  -----------------  -----------------
       1        0.000023948685     0.000039461345    -0.000008005946
       2       -0.000039227714    -0.000047977492    -0.000026653520
       3        0.000018533391    -0.000006338978     0.000005079405
       4        0.000001857112     0.000002872233    -0.000001095235
       5        0.000005957579     0.000015799038     0.000010704487
       6       -0.000021599402    -0.000001873082     0.000008080917
       7        0.000015177731     0.000028839952    -0.000009233562
       8        0.000005422664    -0.000014724440     0.000012765529
       9        0.000003592395     0.000005157422    -0.000006233164
      10       -0.000046074477    -0.000004677838     0.000012795032
      11        0.000002591231    -0.000008705344     0.000012834392
      12        0.000001139266     0.000003962091    -0.000012931743
      13        0.000006249587     0.000002093277    -0.000007736771
      14       -0.000000055609     0.000005574965    -0.000007823411
      15        0.000007564147     0.000000245267    -0.000002900258
      16        0.000004582140    -0.000001486809     0.000005291141
      17        0.000008835497     0.000001531669     0.000000557271
      18        0.000008708580     0.000003790275    -0.000005100637
      19       -0.000015256796    -0.000012792183     0.000006310494
      20       -0.000004594721    -0.000007120795     0.000002354099
      21        0.000004126165    -0.000002084008    -0.000000006091
      22       -0.000000029287    -0.000006663759     0.000003112738
      23        0.000005982644     0.000005994060    -0.000000823499
      24        0.000002695502    -0.000001635181     0.000004238392
      25        0.000000721735     0.000002904658     0.000000901328
      26       -0.000000848005    -0.000002146371     0.000003518610

  **** Optimization is complete! (in 9 steps) ****
    Final optimized geometry and variables:
    Molecular point group: c1

  Mulliken Charges: (a.u.)
   Center  Symbol    Alpha    Beta     Spin     Total
       1     C     3.21334  3.21334  0.00000 -0.42669
       2     C     2.98015  2.98015  0.00000  0.03971
       3     C     3.14828  3.14828  0.00000 -0.29656
       4     C     3.11745  3.11745  0.00000 -0.23489
       5     C     3.13822  3.13822  0.00000 -0.27644
       6     C     3.04835  3.04835  0.00000 -0.09670
       7     C     2.94627  2.94627  0.00000  0.10747
       8     C     3.06703  3.06703  0.00000 -0.13406
       9     C     3.09464  3.09464  0.00000 -0.18928
      10     C     2.95507  2.95507  0.00000  0.08985
      11     C     3.09264  3.09264  0.00000 -0.18528
      12     C     3.06793  3.06793  0.00000 -0.13587
      13     H     0.42014  0.42014  0.00000  0.15972
      14     H     0.41819  0.41819  0.00000  0.16363
      15    CL     8.56186  8.56186  0.00000 -0.12372
      16     H     0.41852  0.41852  0.00000  0.16295
      17     H     0.41935  0.41935  0.00000  0.16129
      18     H     0.42305  0.42305  0.00000  0.15389
      19     H     0.42725  0.42725  0.00000  0.14549
      20     H     0.43429  0.43429  0.00000  0.13142
      21     H     0.43196  0.43196  0.00000  0.13607
      22     H     0.43671  0.43671  0.00000  0.12659
      23     H     0.44062  0.44062  0.00000  0.11876
      24     H     0.43315  0.43315  0.00000  0.13370
      25     H     0.43038  0.43038  0.00000  0.13924
      26     H     0.43514  0.43514  0.00000  0.12971

   Total alpha = 51.00000, Total beta = 51.00000, Total charge = -0.00000

    Molecular point group: c1

    Geometry (in Angstrom), charge = 0, multiplicity = 1:

       Center              X                  Y                   Z               Mass
    ------------   -----------------  -----------------  -----------------  -----------------
         C            1.890476846229     0.844336906878    -2.121376451529    12.000000000000
         C            1.548827349634     0.688842990213    -0.673131225731    12.000000000000
         C            2.397166363598     1.515396794505     0.287711596525    12.000000000000
         C            3.631471547701     0.655480845566     0.554645378535    12.000000000000
         C            3.886067589090    -0.070419075167    -0.767009606490    12.000000000000
         C            2.502090687975    -0.283110232125    -1.343983501584    12.000000000000
         C            0.199602972643     0.272980015529    -0.251324071589    12.000000000000
         C            0.035909232818    -0.402920709417     0.957633677800    12.000000000000
         C           -1.213183344749    -0.805492990606     1.396643210139    12.000000000000
         C           -2.324914064711    -0.530808708497     0.614233536941    12.000000000000
         C           -2.195012821606     0.141391047632    -0.588701674487    12.000000000000
         C           -0.934659661800     0.540442632832    -1.009373908435    12.000000000000
         H           -0.836528197899     1.078806494874    -1.937312167943     1.007825032230
         H           -3.067978204489     0.352485238998    -1.180159067072     1.007825032230
         CL          -3.890949030896    -1.034173126813     1.150214699756    34.968852682000
         H           -1.331434937706    -1.330332624904     2.327876662811     1.007825032230
         H            0.902050062502    -0.625693100071     1.560667067222     1.007825032230
         H            2.160424816687    -1.279511552525    -1.568869478969     1.007825032230
         H            1.141793605838     0.585107133837    -2.850538599018     1.007825032230
         H            2.531708388914     1.667159031316    -2.395251618755     1.007825032230
         H            4.411123164178    -1.008872899671    -0.623144268063     1.007825032230
         H            4.490663761529     0.543441422135    -1.432356988176     1.007825032230
         H            3.382628846664    -0.084402276547     1.312861816889     1.007825032230
         H            4.486162343169     1.222840360987     0.911503024745     1.007825032230
         H            1.848362781090     1.748037409255     1.194638040247     1.007825032230
         H            2.678543335308     2.459651497898    -0.175213462031     1.007825032230

*** Psi4 exiting successfully. Buy a developer a beer!
