                               Psi4 1.4 release

  ==> Input File <==

--------------------------------------------------------------------------
memory 32 GB

molecule mol {
1 1
 C     1.263455    -0.830095     0.301389
 C     0.000000    -0.000000     0.000000
 C    -0.828100    -0.881905    -0.953535
 C    -0.472970    -0.770684    -2.420947
 C     0.155456    -1.870251    -1.587045
 C     1.542853    -1.604898    -1.002898
 C    -2.201676    -1.295126    -0.539087
 C    -2.370892    -2.203472     0.527010
 C    -3.653159    -2.574239     0.958335
 C    -4.789773    -2.041204     0.326378
 C    -4.633753    -1.135841    -0.735316
 C    -3.347936    -0.764513    -1.161542
 H    -3.226532    -0.052607    -1.984346
 H    -5.514519    -0.716182    -1.231196
 O    -6.052300    -2.408727     0.745131
 H    -3.767281    -3.284400     1.783195
 H    -1.484800    -2.628883     1.010935
 H    -1.233840    -1.070073    -3.147300
 H     0.168346     0.061371    -2.730757
 H     1.028388    -1.554856     1.101091
 H     2.117444    -0.220673     0.642578
 H     2.093689    -2.541089    -0.819436
 H     2.151583    -0.997241    -1.696315
 H    -0.168663    -2.896966    -1.781531
 H    -0.571469     0.240628     0.910333
 H     0.264247     0.955866    -0.487476
 H     0.707946    -1.772894    -2.264113
 C    -7.012101    -1.749780    -0.032410
 H    -8.008399    -2.039804     0.298040
 H    -6.892044    -0.673091     0.078258
 H    -6.882449    -2.023880    -1.078346
}

set scf_type df
set opt_type ts
set basis cc-pVDZ
set reference rhf
set geom_maxiter 400

mol.update_geometry()
mol.symmetrize(1e-3)

e, wfn = optimize('mp2', return_wfn=True)
oeprop(wfn, "MULLIKEN_CHARGES")
mol.print_out()
print_variables()
--------------------------------------------------------------------------

    Molecular point group: c1
  Charge       = 1
  Multiplicity = 1
  Basis Set: CC-PVDZ
    Blend: CC-PVDZ
  Basis Set: (CC-PVDZ AUX)
    Blend: CC-PVDZ-JKFIT
  @DF-RHF Final Energy:  -576.65006562271935
    Total Energy =                       -576.6500656227194668
  Basis Set: (CC-PVDZ AUX)
    Blend: CC-PVDZ-RI
    Molecular point group: c1
  Basis Set: CC-PVDZ
    Blend: CC-PVDZ
  Basis Set: (CC-PVDZ AUX)
    Blend: CC-PVDZ-JKFIT
  Basis Set: (CC-PVDZ AUX)
    Blend: CC-PVDZ-JKFIT
	 Reference Energy          =    -576.6500656227193531 [Eh]
	 Singles Energy            =      -0.0000000000000000 [Eh]
	 Same-Spin Energy          =      -0.5191131934289314 [Eh]
	 Opposite-Spin Energy      =      -1.4703701423461963 [Eh]
	 Correlation Energy        =      -1.9894833357751276 [Eh]
	 Total Energy              =    -578.6395489584945153 [Eh]
	 SCS Total Energy          =    -578.5875475246778024 [Eh]
  @DF-RHF Final Energy:  -576.71812497010558
    Total Energy =                       -576.7181249701056913
  @DF-RHF Final Energy:  -576.74676102602245
    Total Energy =                       -576.7467610260223410
  @DF-RHF Final Energy:  -576.76441067893074
    Total Energy =                       -576.7644106789307443
  @DF-RHF Final Energy:  -576.77484684995147
    Total Energy =                       -576.7748468499514729
  @DF-RHF Final Energy:  -576.78006390599796
    Total Energy =                       -576.7800639059980767
  @DF-RHF Final Energy:  -576.78404009839551
    Total Energy =                       -576.7840400983955078
  @DF-RHF Final Energy:  -576.78859434376238
    Total Energy =                       -576.7885943437624974
  @DF-RHF Final Energy:  -576.79291913398436
    Total Energy =                       -576.7929191339844692
  @DF-RHF Final Energy:  -576.79707929246047
    Total Energy =                       -576.7970792924604666
  @DF-RHF Final Energy:  -576.79331291359881
    Total Energy =                       -576.7933129135988111
  @DF-RHF Final Energy:  -576.79011334440520
    Total Energy =                       -576.7901133444051993
  @DF-RHF Final Energy:  -576.78903270456533
    Total Energy =                       -576.7890327045652157
  @DF-RHF Final Energy:  -576.79205030727394
    Total Energy =                       -576.7920503072739393
  @DF-RHF Final Energy:  -576.79054932762756
    Total Energy =                       -576.7905493276275593
  @DF-RHF Final Energy:  -576.78981596762173
    Total Energy =                       -576.7898159676217347
  @DF-RHF Final Energy:  -576.78660571919056
    Total Energy =                       -576.7866057191904474
  @DF-RHF Final Energy:  -576.78475052234762
    Total Energy =                       -576.7847505223476219
  @DF-RHF Final Energy:  -576.78691906020572
    Total Energy =                       -576.7869190602057188
  @DF-RHF Final Energy:  -576.78531328821339
    Total Energy =                       -576.7853132882132741
  @DF-RHF Final Energy:  -576.79444461572734
    Total Energy =                       -576.7944446157273433
  @DF-RHF Final Energy:  -576.79899421952246
    Total Energy =                       -576.7989942195224558
  @DF-RHF Final Energy:  -576.80352292214332
    Total Energy =                       -576.8035229221432019
  @DF-RHF Final Energy:  -576.80743755685046
    Total Energy =                       -576.8074375568503456
  @DF-RHF Final Energy:  -576.81065689779098
    Total Energy =                       -576.8106568977909774
  @DF-RHF Final Energy:  -576.81214021547021
    Total Energy =                       -576.8121402154702082
  @DF-RHF Final Energy:  -576.81219115377883
    Total Energy =                       -576.8121911537787128
  @DF-RHF Final Energy:  -576.81246459453916
    Total Energy =                       -576.8124645945392786
  @DF-RHF Final Energy:  -576.81318965288744
    Total Energy =                       -576.8131896528873312
  @DF-RHF Final Energy:  -576.81321940695614
    Total Energy =                       -576.8132194069562502
  @DF-RHF Final Energy:  -576.81267173870265
    Total Energy =                       -576.8126717387026474
  @DF-RHF Final Energy:  -576.81353944496414
    Total Energy =                       -576.8135394449641353
  @DF-RHF Final Energy:  -576.81346660287920
    Total Energy =                       -576.8134666028790889
  @DF-RHF Final Energy:  -576.81352566474357
    Total Energy =                       -576.8135256647435654
  @DF-RHF Final Energy:  -576.81364548229635
    Total Energy =                       -576.8136454822963515
  @DF-RHF Final Energy:  -576.81372551369543
    Total Energy =                       -576.8137255136953172
  @DF-RHF Final Energy:  -576.81370377163000
    Total Energy =                       -576.8137037716298892
  @DF-RHF Final Energy:  -576.81373182153561
    Total Energy =                       -576.8137318215356117
  @DF-RHF Final Energy:  -576.81373108059699
    Total Energy =                       -576.8137310805968809
  Multiplicity = 1
  Basis Set: CC-PVDZ
    Blend: CC-PVDZ
  Basis Set: (CC-PVDZ AUX)
    Blend: CC-PVDZ-JKFIT

    Orbital Energies [Eh]
    ---------------------

    Doubly Occupied:

       1A    -20.702494     2A    -11.529017     3A    -11.440592
       4A    -11.418662     5A    -11.418601     6A    -11.414640
       7A    -11.414530     8A    -11.403271     9A    -11.401605
      10A    -11.400250    11A    -11.393097    12A    -11.387903
      13A    -11.374678    14A    -11.370449    15A     -1.530619
      16A     -1.351556    17A     -1.283374    18A     -1.207181
      19A     -1.192767    20A     -1.158644    21A     -1.145404
      22A     -1.063172    23A     -1.022297    24A     -0.992467
      25A     -0.976285    26A     -0.949679    27A     -0.907471
      28A     -0.854674    29A     -0.828009    30A     -0.810626
      31A     -0.797781    32A     -0.786360    33A     -0.759675
      34A     -0.756258    35A     -0.753554    36A     -0.736424
      37A     -0.736149    38A     -0.724641    39A     -0.694645
      40A     -0.692008    41A     -0.668895    42A     -0.656830
      43A     -0.646808    44A     -0.644837    45A     -0.632712
      46A     -0.627312    47A     -0.623632    48A     -0.603203
      49A     -0.590565    50A     -0.479104    51A     -0.442642

  @DF-RHF Final Energy:  -576.81372740410507

   => Energetics <=

    Nuclear Repulsion Energy =            869.2577230870069798
    One-Electron Energy =               -2491.3468041153123522
    Two-Electron Energy =                1045.2753536242003065
    Total Energy =                       -576.8137274041050659

  Dipole Moment: [D]
     X:     5.2539      Y:     3.0291      Z:    -1.7663     Total:     6.3166

  Basis Set: (CC-PVDZ AUX)
    Blend: CC-PVDZ-RI
    Molecular point group: c1
  Basis Set: CC-PVDZ
    Blend: CC-PVDZ
  Basis Set: (CC-PVDZ AUX)
    Blend: CC-PVDZ-JKFIT
  Basis Set: (CC-PVDZ AUX)
    Blend: CC-PVDZ-JKFIT
	 Reference Energy          =    -576.8137274041050659 [Eh]
	 Singles Energy            =      -0.0000000000000000 [Eh]
	 Same-Spin Energy          =      -0.5059735042464331 [Eh]
	 Opposite-Spin Energy      =      -1.4558652308577429 [Eh]
	 Correlation Energy        =      -1.9618387351041759 [Eh]
	 Total Energy              =    -578.7755661392092179 [Eh]

	 ================> DF-SCS-MP2 Energies <==================
	-----------------------------------------------------------
	 SCS Same-Spin Scale       =       0.3333333333333333 [-]
	 SCS Opposite-Spin Scale   =       1.2000000000000000 [-]
	 SCS Same-Spin Energy      =      -0.1686578347488110 [Eh]
	 SCS Opposite-Spin Energy  =      -1.7470382770292914 [Eh]
	 SCS Correlation Energy    =      -1.9156961117781024 [Eh]
	 SCS Total Energy          =    -578.7294235158831270 [Eh]
	-----------------------------------------------------------

  -Total Gradient:
     Atom            X                  Y                   Z
    ------   -----------------  -----------------  -----------------
       1       -0.000028659118    -0.000032880389    -0.000056215972
       2       -0.000035860705     0.000030430044     0.000032163063
       3        0.000169600581    -0.000183215738    -0.000107763882
       4        0.000076632835     0.000010313986     0.000211766797
       5       -0.000137565402     0.000419511438    -0.000034918900
       6       -0.000020666272    -0.000027175374     0.000079297559
       7       -0.000013511760    -0.000068771846     0.000021355843
       8        0.000003402436     0.000020037161     0.000031170547
       9       -0.000007788272    -0.000008055791    -0.000003234282
      10        0.000004378779     0.000011153367     0.000022099880
      11       -0.000005260440    -0.000006436090    -0.000001549233
      12        0.000016770579     0.000009607661    -0.000025420739
      13       -0.000002627486    -0.000002167697    -0.000000504706
      14        0.000003281690     0.000001200364    -0.000000381078
      15        0.000000195528    -0.000001911415    -0.000011544111
      16       -0.000003267806    -0.000000038016    -0.000001054944
      17       -0.000003725409     0.000004100816    -0.000000876926
      18        0.000006984188     0.000004762754    -0.000015218842
      19       -0.000038933780    -0.000003134240    -0.000091157732
      20        0.000019886846    -0.000010680004     0.000003142204
      21       -0.000011133225     0.000010463520     0.000007721183
      22       -0.000010063784     0.000004760564     0.000008405839
      23        0.000012981237    -0.000007379366     0.000008818910
      24       -0.000043890345     0.000016627213     0.000013098942
      25        0.000010328862     0.000010277974    -0.000003342466
      26        0.000019067496    -0.000028574586    -0.000009184405
      27        0.000019259534    -0.000169487427    -0.000078279143
      28        0.000006420000    -0.000008449062     0.000004929014
      29        0.000000197756    -0.000004859281     0.000002878533
      30       -0.000003564499     0.000004812278    -0.000000709104
      31       -0.000002870040     0.000005157185    -0.000005491845

  **** Optimization is complete! (in 48 steps) ****
    Final optimized geometry and variables:
    Molecular point group: c1

  Mulliken Charges: (a.u.)
   Center  Symbol    Alpha    Beta     Spin     Total
       1     C     3.05208  3.05208  0.00000 -0.10416
       2     C     2.96901  2.96901  0.00000  0.06199
       3     C     3.04857  3.04857  0.00000 -0.09714
       4     C     2.96898  2.96898  0.00000  0.06204
       5     C     3.05223  3.05223  0.00000 -0.10446
       6     C     3.03225  3.03225  0.00000 -0.06449
       7     C     3.03418  3.03418  0.00000 -0.06836
       8     C     3.01185  3.01185  0.00000 -0.02369
       9     C     2.98906  2.98906  0.00000  0.02189
      10     C     2.91922  2.91922  0.00000  0.16156
      11     C     3.02870  3.02870  0.00000 -0.05740
      12     C     2.98869  2.98869  0.00000  0.02263
      13     H     0.48025  0.48025  0.00000  0.03951
      14     H     0.47045  0.47045  0.00000  0.05910
      15     O     4.14543  4.14543  0.00000 -0.29085
      16     H     0.46890  0.46890  0.00000  0.06219
      17     H     0.48154  0.48154  0.00000  0.03691
      18     H     0.44619  0.44619  0.00000  0.10763
      19     H     0.44804  0.44804  0.00000  0.10393
      20     H     0.45436  0.45436  0.00000  0.09129
      21     H     0.44514  0.44514  0.00000  0.10973
      22     H     0.44998  0.44998  0.00000  0.10003
      23     H     0.46036  0.46036  0.00000  0.07927
      24     H     0.45448  0.45448  0.00000  0.09105
      25     H     0.44615  0.44615  0.00000  0.10769
      26     H     0.44808  0.44808  0.00000  0.10383
      27     H     0.44515  0.44515  0.00000  0.10970
      28     C     2.96787  2.96787  0.00000  0.06425
      29     H     0.45406  0.45406  0.00000  0.09189
      30     H     0.46939  0.46939  0.00000  0.06123
      31     H     0.46938  0.46938  0.00000  0.06123

   Total alpha = 51.00000, Total beta = 51.00000, Total charge =  1.00000

    Molecular point group: c1

    Geometry (in Angstrom), charge = 1, multiplicity = 1:

       Center              X                  Y                   Z               Mass
    ------------   -----------------  -----------------  -----------------  -----------------
         C            3.162256554847     0.607229981412     0.974917465408    12.000000000000
         C            2.130287144111     1.717696264926     0.431176162179    12.000000000000
         C            1.391442331140     0.918054259257    -0.528975346097    12.000000000000
         C            2.044306345427     0.576541557592    -1.779709636329    12.000000000000
         C            3.074924736522    -0.541848414192    -1.252825082600    12.000000000000
         C            3.980870014772     0.047613805714    -0.180375554375    12.000000000000
         C            0.111854975520     0.299422584189    -0.159416098940    12.000000000000
         C           -0.013214887055    -0.950256129676     0.489398171429    12.000000000000
         C           -1.282658808350    -1.443598763323     0.794141167830    12.000000000000
         C           -2.447119691232    -0.715448664460     0.465303243230    12.000000000000
         C           -2.317079670770     0.531259278442    -0.182078957396    12.000000000000
         C           -1.045275125272     1.035655151996    -0.492300418745    12.000000000000
         H           -0.965836706812     2.004974353958    -0.994679997101     1.007825032230
         H           -3.190961832883     1.125338395275    -0.453363745894     1.007825032230
         O           -3.611259870922    -1.296137766050     0.810438883960    15.994914619570
         H           -1.400148226864    -2.407633224110     1.295568081173     1.007825032230
         H            0.865538804095    -1.540931518603     0.758826114559     1.007825032230
         H            1.371098020927     0.121990505520    -2.517027944025     1.007825032230
         H            2.650734644048     1.393068948424    -2.197919429726     1.007825032230
         H            2.601520381282    -0.182551823446     1.499571240958     1.007825032230
         H            3.771128838682     1.139183972236     1.723016824822     1.007825032230
         H            4.653296459508    -0.740604636854     0.199924666036     1.007825032230
         H            4.618938459464     0.837301888929    -0.612589794684     1.007825032230
         H            2.507175287040    -1.407821482883    -0.876814060793     1.007825032230
         H            1.518780176504     2.076636138130     1.268186770252     1.007825032230
         H            2.736643972716     2.510681009252    -0.030127749643     1.007825032230
         H            3.619004360134    -0.865388271280    -2.154523657626     1.007825032230
         C           -4.814081350073    -0.588472901075     0.493624623111    12.000000000000
         H           -5.631016747595    -1.223878939551     0.853108307470     1.007825032230
         H           -4.848397475719     0.384691207404     1.010008135049     1.007825032230
         H           -4.911837562455    -0.441401935720    -0.594354849572     1.007825032230

*** Psi4 exiting successfully. Buy a developer a beer!
