                               Psi4 1.4 release

  ==> Input File <==

--------------------------------------------------------------------------
memory 32 GB

molecule mol {
1 1
 C     1.263455    -0.830095     0.301389
 C     0.109287    -0.071802     0.026070
 C    -0.866981    -0.615472    -0.835100
 C    -0.695421    -1.885914    -1.404542
 C     0.458870    -2.635169    -1.118854
 C     1.437612    -2.104158    -0.263687
 C    -0.074111     1.299690     0.586965
 C     0.015315     2.507717    -0.364566
 C    -1.356829     3.200190    -0.246615
 C    -1.779295     2.983952     1.221143
 C    -1.190588     1.620997     1.584855
 C     0.256381     1.583570     2.036784
 O     0.627353    -3.887603    -1.673311
 H     2.030351    -0.413010     0.962045
 H     2.339320    -2.681782    -0.037785
 H    -1.464833    -2.295724    -2.066212
 H    -1.772726    -0.036766    -1.047330
 H     0.561801     0.737340     2.658683
 H     0.739137     2.537536     2.274436
 H    -2.074849     2.677217    -0.903124
 H    -1.339762     4.261400    -0.547689
 H    -2.873814     3.001236     1.344677
 H    -1.364046     3.776898     1.868778
 H    -1.846742     0.816672     1.930608
 H     0.234839     2.183127    -1.393952
 H     0.827707     3.188298    -0.051567
 H    -1.181731     2.110837     2.315008
 H     1.450626    -4.253727    -1.381794
}

set scf_type df
set opt_type ts
set basis cc-pVDZ
set reference rhf
set geom_maxiter 400

mol.update_geometry()
mol.symmetrize(1e-3)

e, wfn = optimize('mp2', return_wfn=True)
oeprop(wfn, "MULLIKEN_CHARGES")
mol.print_out()
print_variables()
--------------------------------------------------------------------------

    Molecular point group: c1
  Charge       = 1
  Multiplicity = 1
  Basis Set: CC-PVDZ
    Blend: CC-PVDZ
  Basis Set: (CC-PVDZ AUX)
    Blend: CC-PVDZ-JKFIT
  @DF-RHF Final Energy:  -537.63896669495205
    Total Energy =                       -537.6389666949520461
  Basis Set: (CC-PVDZ AUX)
    Blend: CC-PVDZ-RI
    Molecular point group: c1
  Basis Set: CC-PVDZ
    Blend: CC-PVDZ
  Basis Set: (CC-PVDZ AUX)
    Blend: CC-PVDZ-JKFIT
  Basis Set: (CC-PVDZ AUX)
    Blend: CC-PVDZ-JKFIT
	 Reference Energy          =    -537.6389666949520461 [Eh]
	 Singles Energy            =      -0.0000000000000000 [Eh]
	 Same-Spin Energy          =      -0.4844991861847410 [Eh]
	 Opposite-Spin Energy      =      -1.3563880586546921 [Eh]
	 Correlation Energy        =      -1.8408872448394331 [Eh]
	 Total Energy              =    -539.4798539397914965 [Eh]
	 SCS Total Energy          =    -539.4281320940659725 [Eh]
  @DF-RHF Final Energy:  -537.70943099182546
    Total Energy =                       -537.7094309918254567
  @DF-RHF Final Energy:  -537.73089296978583
    Total Energy =                       -537.7308929697858275
  @DF-RHF Final Energy:  -537.74552013299115
    Total Energy =                       -537.7455201329911461
  @DF-RHF Final Energy:  -537.75315366975167
    Total Energy =                       -537.7531536697516685
  @DF-RHF Final Energy:  -537.75742128646789
    Total Energy =                       -537.7574212864678884
  @DF-RHF Final Energy:  -537.76155126984793
    Total Energy =                       -537.7615512698479279
  @DF-RHF Final Energy:  -537.76648888254067
    Total Energy =                       -537.7664888825406706
  @DF-RHF Final Energy:  -537.77138631082801
    Total Energy =                       -537.7713863108280066
  @DF-RHF Final Energy:  -537.77590688508428
    Total Energy =                       -537.7759068850842823
  @DF-RHF Final Energy:  -537.77260850821392
    Total Energy =                       -537.7726085082139207
  @DF-RHF Final Energy:  -537.77140227547113
    Total Energy =                       -537.7714022754711323
  @DF-RHF Final Energy:  -537.76850201267723
    Total Energy =                       -537.7685020126772315
  @DF-RHF Final Energy:  -537.76598544160152
    Total Energy =                       -537.7659854416015150
  @DF-RHF Final Energy:  -537.76359577767494
    Total Energy =                       -537.7635957776749365
  @DF-RHF Final Energy:  -537.76614634414500
    Total Energy =                       -537.7661463441449996
  @DF-RHF Final Energy:  -537.76979976197413
    Total Energy =                       -537.7697997619741273
  @DF-RHF Final Energy:  -537.76758208660544
    Total Energy =                       -537.7675820866054437
  @DF-RHF Final Energy:  -537.76525965745975
    Total Energy =                       -537.7652596574597510
  @DF-RHF Final Energy:  -537.76243242727196
    Total Energy =                       -537.7624324272719605
  @DF-RHF Final Energy:  -537.77443902330424
    Total Energy =                       -537.7744390233042395
  @DF-RHF Final Energy:  -537.77946286789017
    Total Energy =                       -537.7794628678901745
  @DF-RHF Final Energy:  -537.78333215871407
    Total Energy =                       -537.7833321587140745
  @DF-RHF Final Energy:  -537.78731112886248
    Total Energy =                       -537.7873111288624841
  @DF-RHF Final Energy:  -537.78857962183315
    Total Energy =                       -537.7885796218331507
  @DF-RHF Final Energy:  -537.78923197926110
    Total Energy =                       -537.7892319792611033
  @DF-RHF Final Energy:  -537.78929213668789
    Total Energy =                       -537.7892921366878909
  @DF-RHF Final Energy:  -537.78947621207010
    Total Energy =                       -537.7894762120700989
  @DF-RHF Final Energy:  -537.78918144800946
    Total Energy =                       -537.7891814480094581
  @DF-RHF Final Energy:  -537.78927493586730
    Total Energy =                       -537.7892749358672972
  @DF-RHF Final Energy:  -537.78947746508879
    Total Energy =                       -537.7894774650887939
  @DF-RHF Final Energy:  -537.78960293525517
    Total Energy =                       -537.7896029352551750
  @DF-RHF Final Energy:  -537.78959808898708
    Total Energy =                       -537.7895980889870771
  @DF-RHF Final Energy:  -537.78965449419286
    Total Energy =                       -537.7896544941928596
  @DF-RHF Final Energy:  -537.78963672655266
    Total Energy =                       -537.7896367265526578
  @DF-RHF Final Energy:  -537.78968609002277
    Total Energy =                       -537.7896860900227693
  @DF-RHF Final Energy:  -537.78975136033046
    Total Energy =                       -537.7897513603304560
  @DF-RHF Final Energy:  -537.78975096775116
    Total Energy =                       -537.7897509677511607
  @DF-RHF Final Energy:  -537.78979105597250
    Total Energy =                       -537.7897910559725005
  Multiplicity = 1
  Basis Set: CC-PVDZ
    Blend: CC-PVDZ
  Basis Set: (CC-PVDZ AUX)
    Blend: CC-PVDZ-JKFIT

    Orbital Energies [Eh]
    ---------------------

    Doubly Occupied:

       1A    -20.714147     2A    -11.531994     3A    -11.447617
       4A    -11.421170     5A    -11.421051     6A    -11.417083
       7A    -11.416824     8A    -11.407952     9A    -11.406681
      10A    -11.405484    11A    -11.389891    12A    -11.381388
      13A    -11.374986    14A     -1.532745    15A     -1.354487
      16A     -1.287527    17A     -1.209358    18A     -1.195094
      19A     -1.163398    20A     -1.143535    21A     -1.024688
      22A     -1.013540    23A     -0.985853    24A     -0.961942
      25A     -0.913591    26A     -0.867504    27A     -0.855262
      28A     -0.813171    29A     -0.802152    30A     -0.789505
      31A     -0.759540    32A     -0.753640    33A     -0.738787
      34A     -0.736633    35A     -0.732940    36A     -0.712906
      37A     -0.701931    38A     -0.693700    39A     -0.667876
      40A     -0.657806    41A     -0.640955    42A     -0.634473
      43A     -0.632269    44A     -0.623706    45A     -0.614780
      46A     -0.484239    47A     -0.450677

  @DF-RHF Final Energy:  -537.78981552224877

   => Energetics <=

    Nuclear Repulsion Energy =            770.7033201633962562
    One-Electron Energy =               -2243.2133133165743857
    Two-Electron Energy =                 934.7201776309293564
    Total Energy =                       -537.7898155222487730

  Dipole Moment: [D]
     X:     0.9788      Y:     5.0865      Z:     1.9958     Total:     5.5510

  Basis Set: (CC-PVDZ AUX)
    Blend: CC-PVDZ-RI
    Molecular point group: c1
  Basis Set: CC-PVDZ
    Blend: CC-PVDZ
  Basis Set: (CC-PVDZ AUX)
    Blend: CC-PVDZ-JKFIT
  Basis Set: (CC-PVDZ AUX)
    Blend: CC-PVDZ-JKFIT
	 Reference Energy          =    -537.7898155222487730 [Eh]
	 Singles Energy            =      -0.0000000000000000 [Eh]
	 Same-Spin Energy          =      -0.4734374876100554 [Eh]
	 Opposite-Spin Energy      =      -1.3439996222324828 [Eh]
	 Correlation Energy        =      -1.8174371098425381 [Eh]
	 Total Energy              =    -539.6072526320913312 [Eh]

	 ================> DF-SCS-MP2 Energies <==================
	-----------------------------------------------------------
	 SCS Same-Spin Scale       =       0.3333333333333333 [-]
	 SCS Opposite-Spin Scale   =       1.2000000000000000 [-]
	 SCS Same-Spin Energy      =      -0.1578124958700184 [Eh]
	 SCS Opposite-Spin Energy  =      -1.6127995466789793 [Eh]
	 SCS Correlation Energy    =      -1.7706120425489977 [Eh]
	 SCS Total Energy          =    -539.5604275647978056 [Eh]
	-----------------------------------------------------------

  -Total Gradient:
     Atom            X                  Y                   Z
    ------   -----------------  -----------------  -----------------
       1       -0.000021360361     0.000007693503    -0.000104167513
       2       -0.000027062000    -0.000020537130     0.000078483333
       3       -0.000026493417    -0.000026878333    -0.000069273818
       4       -0.000015808675     0.000011858162     0.000006691769
       5        0.000030704038    -0.000084589684     0.000158087812
       6       -0.000000254094     0.000022820644     0.000001446604
       7        0.000015103801     0.000169640290    -0.000336919850
       8        0.000103662285    -0.000040301420     0.000041906051
       9        0.000012631995    -0.000001643164     0.000009156985
      10       -0.000013211869    -0.000147459900    -0.000059792563
      11        0.000238066956    -0.000081434740     0.000182318216
      12       -0.000170621411     0.000084824946    -0.000271119284
      13       -0.000018572114     0.000041324170    -0.000057305431
      14        0.000008363138     0.000002504650    -0.000002066938
      15        0.000004155627     0.000006546297    -0.000013025127
      16       -0.000005476713    -0.000004638990    -0.000006802633
      17        0.000015929278    -0.000040484061     0.000014665425
      18       -0.000116516600     0.000057159396     0.000203922708
      19       -0.000060325670    -0.000015559497     0.000218448060
      20        0.000081002266    -0.000003482704     0.000010135325
      21       -0.000061207598    -0.000023462382    -0.000045740448
      22        0.000026820733     0.000072020878     0.000045608612
      23        0.000095570427    -0.000070327697     0.000013961626
      24        0.000077490269     0.000055287353    -0.000139533515
      25       -0.000068779890    -0.000012154683    -0.000005274854
      26       -0.000005520638    -0.000033382230     0.000015844523
      27       -0.000094031281     0.000057148673     0.000120499771
      28       -0.000004258483     0.000017507659    -0.000010154844

  **** Optimization is complete! (in 48 steps) ****
    Final optimized geometry and variables:
    Molecular point group: c1

  Mulliken Charges: (a.u.)
   Center  Symbol    Alpha    Beta     Spin     Total
       1     C     2.98958  2.98958  0.00000  0.02084
       2     C     3.03413  3.03413  0.00000 -0.06825
       3     C     3.01118  3.01118  0.00000 -0.02236
       4     C     2.98465  2.98465  0.00000  0.03069
       5     C     2.95618  2.95618  0.00000  0.08763
       6     C     3.01263  3.01263  0.00000 -0.02527
       7     C     3.04820  3.04820  0.00000 -0.09640
       8     C     2.96918  2.96918  0.00000  0.06164
       9     C     3.05206  3.05206  0.00000 -0.10413
      10     C     3.03252  3.03252  0.00000 -0.06504
      11     C     3.05188  3.05188  0.00000 -0.10377
      12     C     2.96958  2.96958  0.00000  0.06084
      13     O     4.08734  4.08734  0.00000 -0.17468
      14     H     0.47857  0.47857  0.00000  0.04286
      15     H     0.47011  0.47011  0.00000  0.05978
      16     H     0.46668  0.46668  0.00000  0.06664
      17     H     0.48060  0.48060  0.00000  0.03880
      18     H     0.44595  0.44595  0.00000  0.10811
      19     H     0.44763  0.44763  0.00000  0.10473
      20     H     0.45433  0.45433  0.00000  0.09134
      21     H     0.44468  0.44468  0.00000  0.11064
      22     H     0.44956  0.44956  0.00000  0.10088
      23     H     0.46019  0.46019  0.00000  0.07962
      24     H     0.45443  0.45443  0.00000  0.09115
      25     H     0.44590  0.44590  0.00000  0.10820
      26     H     0.44752  0.44752  0.00000  0.10497
      27     H     0.44472  0.44472  0.00000  0.11055
      28     H     0.41002  0.41002  0.00000  0.17996

   Total alpha = 47.00000, Total beta = 47.00000, Total charge =  1.00000

    Molecular point group: c1

    Geometry (in Angstrom), charge = 1, multiplicity = 1:

       Center              X                  Y                   Z               Mass
    ------------   -----------------  -----------------  -----------------  -----------------
         C            1.637861782350    -0.617644503109    -0.445524580165    12.000000000000
         C            0.379105986153    -0.089038056935    -0.080935894651    12.000000000000
         C           -0.788843786145    -0.860112810664    -0.268082343529    12.000000000000
         C           -0.692324987423    -2.144178695475    -0.812387101757    12.000000000000
         C            0.558189442357    -2.678356719751    -1.178547695294    12.000000000000
         C            1.720218464833    -1.904885695888    -0.990737191721    12.000000000000
         C            0.395539139844     1.268941165970     0.480072592689    12.000000000000
         C            0.164722265604     2.422254876005    -0.369673152658    12.000000000000
         C           -1.406643356781     2.652452103634    -0.096919972943    12.000000000000
         C           -1.648795881325     2.874405782211     1.389446857702    12.000000000000
         C           -1.134969791467     1.696246697866     2.205053913499    12.000000000000
         C            0.433545094456     1.473373491939     1.916917713311    12.000000000000
         O            0.559906458356    -3.924483637781    -1.698948501014    15.994914619570
         H            2.553407292141    -0.033969093369    -0.308032509485     1.007825032230
         H            2.701166564829    -2.303109107176    -1.270048787660     1.007825032230
         H           -1.587180859337    -2.753222015483    -0.962817133134     1.007825032230
         H           -1.773245851373    -0.473912807714     0.006327932908     1.007825032230
         H            0.776108045770     0.595608257895     2.478827512578     1.007825032230
         H            0.941889376757     2.400763415840     2.218423850510     1.007825032230
         H           -1.970726825713     1.786985851105    -0.479137081151     1.007825032230
         H           -1.669263971859     3.523872682296    -0.717437755103     1.007825032230
         H           -2.731309705017     2.995411791209     1.567320662267     1.007825032230
         H           -1.159826868911     3.806877944408     1.719509184288     1.007825032230
         H           -1.681255687418     0.768592923962     1.971869309862     1.007825032230
         H            0.314673926846     2.220139499977    -1.437379683397     1.007825032230
         H            0.678878435920     3.331802364084    -0.026876424619     1.007825032230
         H           -1.196994513880     1.858431487053     3.292943146699     1.007825032230
         H            1.470678060261    -4.179968730482    -1.911217241312     1.007825032230

*** Psi4 exiting successfully. Buy a developer a beer!
