                               Psi4 1.4 release

  ==> Input File <==

--------------------------------------------------------------------------
molecule mol {
0 1
C    0.00000000  0.00000000  0.00000000
C   -0.60596800 -1.22643900 -0.66495400
C   -2.02709400 -1.58300900 -0.50745700
C   -2.43823800 -2.92802500 -0.36687600
C   -3.79420800 -3.25362700 -0.21147700
C   -4.76604600 -2.24026400 -0.18223100
C   -4.36957100 -0.89748300 -0.29927000
C   -3.01413900 -0.57254200 -0.45292200
H   -2.71536900  0.47628700 -0.54544000
H   -5.11880500 -0.10042600 -0.26858100
H   -5.82299500 -2.49372900 -0.05807200
H   -4.09109700 -4.30103800 -0.09961600
H   -1.68164800 -3.71784500 -0.34781900
C    0.31906000 -1.84881900 -1.45135500
C    1.65382000 -1.13497300 -1.36532200
C    1.51129000 -0.28096600 -0.09259300
H    1.81230500 -0.88683600  0.77854100
H    2.12735300  0.63188600 -0.10372600
H    2.50985700 -1.83129300 -1.32897500
H    1.79496400 -0.50247100 -2.26494400
C    0.12013800 -2.99314900 -2.39942300
H   -0.94431100 -3.22404400 -2.55201200
H    0.56881600 -2.74955600 -3.37850200
H    0.62560000 -3.90646200 -2.03728700
H   -0.35400200  0.14438000  1.03432400
H   -0.26785300  0.91306400 -0.56714000
}

set scf_type df
set basis cc-pVDZ
set reference rhf

mol.update_geometry()
mol.symmetrize(1e-3)

e, wfn = optimize('mp2', return_wfn=True)
oeprop(wfn, "MULLIKEN_CHARGES")
mol.print_out()
print_variables()
--------------------------------------------------------------------------

    Molecular point group: c1
  Charge       = 0
  Multiplicity = 1
  Basis Set: CC-PVDZ
    Blend: CC-PVDZ
  Basis Set: (CC-PVDZ AUX)
    Blend: CC-PVDZ-JKFIT

    Orbital Energies [Eh]
    ---------------------

    Doubly Occupied:

       1A    -11.246144     2A    -11.241126     3A    -11.240869
       4A    -11.238615     5A    -11.238049     6A    -11.237833
       7A    -11.235080     8A    -11.229507     9A    -11.229016
      10A    -11.228557    11A    -11.228053    12A    -11.225697
      13A     -1.156740    14A     -1.127010    15A     -1.028103
      16A     -1.012029    17A     -1.002364    18A     -0.942903
      19A     -0.900041    20A     -0.822632    21A     -0.818115
      22A     -0.778359    23A     -0.714399    24A     -0.665725
      25A     -0.641040    26A     -0.637353    27A     -0.617304
      28A     -0.608426    29A     -0.579685    30A     -0.567533
      31A     -0.564273    32A     -0.540551    33A     -0.532453
      34A     -0.505280    35A     -0.496310    36A     -0.487508
      37A     -0.476944    38A     -0.475816    39A     -0.466005
      40A     -0.459694    41A     -0.360958    42A     -0.330435
      43A     -0.289633

  @DF-RHF Final Energy:  -462.59728993237638

   => Energetics <=

    Nuclear Repulsion Energy =            651.1771066823625915
    One-Electron Energy =               -1916.7004626750938314
    Two-Electron Energy =                 802.9260660603548558
    Total Energy =                       -462.5972899323763841

  Dipole Moment: [D]
     X:     0.3274      Y:    -0.0617      Z:    -0.2507     Total:     0.4169

  Basis Set: (CC-PVDZ AUX)
    Blend: CC-PVDZ-RI
    Molecular point group: c1
  Basis Set: CC-PVDZ
    Blend: CC-PVDZ
  Basis Set: (CC-PVDZ AUX)
    Blend: CC-PVDZ-JKFIT
  Basis Set: (CC-PVDZ AUX)
    Blend: CC-PVDZ-JKFIT
	 Reference Energy          =    -462.5972899323763841 [Eh]
	 Singles Energy            =      -0.0000000000000000 [Eh]
	 Same-Spin Energy          =      -0.4257493759283900 [Eh]
	 Opposite-Spin Energy      =      -1.2192287091334695 [Eh]
	 Correlation Energy        =      -1.6449780850618594 [Eh]
	 Total Energy              =    -464.2422680174382208 [Eh]

	 ================> DF-SCS-MP2 Energies <==================
	-----------------------------------------------------------
	 SCS Same-Spin Scale       =       0.3333333333333333 [-]
	 SCS Opposite-Spin Scale   =       1.2000000000000000 [-]
	 SCS Same-Spin Energy      =      -0.1419164586427966 [Eh]
	 SCS Opposite-Spin Energy  =      -1.4630744509601634 [Eh]
	 SCS Correlation Energy    =      -1.6049909096029600 [Eh]
	 SCS Total Energy          =    -464.2022808419793591 [Eh]
	-----------------------------------------------------------

  -Total Gradient:
     Atom            X                  Y                   Z
    ------   -----------------  -----------------  -----------------
       1       -0.000007226676    -0.000008842769    -0.000013475018
       2        0.000015107748     0.000020215279     0.000013303841
       3       -0.000008305230    -0.000007192134    -0.000011437884
       4        0.000003204747    -0.000000826732     0.000002196002
       5       -0.000001339019    -0.000000145860    -0.000000504429
       6        0.000002354364    -0.000000358615     0.000000338753
       7       -0.000001048629     0.000002143610    -0.000000391584
       8       -0.000000627054     0.000001002138    -0.000000848018
       9        0.000001986347    -0.000000031769     0.000000067424
      10       -0.000001056079    -0.000000490602     0.000000007294
      11       -0.000000063232    -0.000000154194    -0.000000227752
      12       -0.000000833517    -0.000000042966     0.000000095879
      13       -0.000000202041     0.000000574860     0.000000943824
      14       -0.000020423323    -0.000088731629    -0.000067063885
      15       -0.000002152693     0.000017068434     0.000010102394
      16        0.000011847964    -0.000004900406    -0.000009050277
      17       -0.000001739318     0.000000537739     0.000001300960
      18       -0.000001086843     0.000000333506     0.000001388962
      19       -0.000001875601     0.000001634269    -0.000001435734
      20       -0.000002978435     0.000002249212     0.000000402390
      21       -0.000015767762     0.000050708009     0.000066547728
      22       -0.000037105004     0.000043375936    -0.000010971594
      23        0.000001802894     0.000074770073    -0.000058842542
      24        0.000065358252    -0.000105196194     0.000074893064
      25        0.000002523353     0.000000571088     0.000001743185
      26       -0.000000355210     0.000001729718     0.000000917017

  **** Optimization is complete! (in 1 steps) ****
    Final optimized geometry and variables:
    Molecular point group: c1

  Mulliken Charges: (a.u.)
   Center  Symbol    Alpha    Beta     Spin     Total
       1     C     3.00217  3.00217  0.00000 -0.00435
       2     C     3.03027  3.03027  0.00000 -0.06053
       3     C     3.04366  3.04366  0.00000 -0.08732
       4     C     3.00405  3.00405  0.00000 -0.00810
       5     C     3.00365  3.00365  0.00000 -0.00729
       6     C     3.00890  3.00890  0.00000 -0.01781
       7     C     3.00360  3.00360  0.00000 -0.00719
       8     C     3.00433  3.00433  0.00000 -0.00867
       9     H     0.49651  0.49651  0.00000  0.00699
      10     H     0.49113  0.49113  0.00000  0.01773
      11     H     0.49110  0.49110  0.00000  0.01779
      12     H     0.49078  0.49078  0.00000  0.01844
      13     H     0.49491  0.49491  0.00000  0.01017
      14     C     3.10572  3.10572  0.00000 -0.21145
      15     C     3.00343  3.00343  0.00000 -0.00687
      16     C     3.02716  3.02716  0.00000 -0.05433
      17     H     0.47870  0.47870  0.00000  0.04259
      18     H     0.48487  0.48487  0.00000  0.03026
      19     H     0.48176  0.48176  0.00000  0.03648
      20     H     0.47670  0.47670  0.00000  0.04661
      21     C     3.00285  3.00285  0.00000 -0.00570
      22     H     0.47213  0.47213  0.00000  0.05573
      23     H     0.47551  0.47551  0.00000  0.04898
      24     H     0.47246  0.47246  0.00000  0.05509
      25     H     0.47865  0.47865  0.00000  0.04271
      26     H     0.47499  0.47499  0.00000  0.05001

   Total alpha = 43.00000, Total beta = 43.00000, Total charge = -0.00000

    Molecular point group: c1

    Geometry (in Angstrom), charge = 0, multiplicity = 1:

       Center              X                  Y                   Z               Mass
    ------------   -----------------  -----------------  -----------------  -----------------
         C            1.395102899955     1.576301044008     0.681538013955    12.000000000000
         C            0.789134899955     0.349862044008     0.016584013955    12.000000000000
         C           -0.631991100045    -0.006707955992     0.174081013955    12.000000000000
         C           -1.043135100045    -1.351723955992     0.314662013955    12.000000000000
         C           -2.399105100045    -1.677325955992     0.470061013955    12.000000000000
         C           -3.370943100045    -0.663962955992     0.499307013955    12.000000000000
         C           -2.974468100045     0.678818044008     0.382268013955    12.000000000000
         C           -1.619036100045     1.003759044008     0.228616013955    12.000000000000
         H           -1.320266100045     2.052588044008     0.136098013955     1.007825032230
         H           -3.723702100045     1.475875044008     0.412957013955     1.007825032230
         H           -4.427892100045    -0.917427955992     0.623466013955     1.007825032230
         H           -2.695994100045    -2.724736955992     0.581922013955     1.007825032230
         H           -0.286545100045    -2.141543955992     0.333719013955     1.007825032230
         C            1.714162899955    -0.272517955992    -0.769816986045    12.000000000000
         C            3.048922899955     0.441328044008    -0.683783986045    12.000000000000
         C            2.906392899955     1.295335044008     0.588945013955    12.000000000000
         H            3.207407899955     0.689465044008     1.460079013955     1.007825032230
         H            3.522455899955     2.208187044008     0.577812013955     1.007825032230
         H            3.904959899955    -0.254991955992    -0.647436986045     1.007825032230
         H            3.190066899955     1.073830044008    -1.583405986045     1.007825032230
         C            1.515240899955    -1.416847955992    -1.717884986045    12.000000000000
         H            0.450791899955    -1.647742955992    -1.870473986045     1.007825032230
         H            1.963918899955    -1.173254955992    -2.696963986045     1.007825032230
         H            2.020702899955    -2.330160955992    -1.355748986045     1.007825032230
         H            1.041100899955     1.720681044008     1.715862013955     1.007825032230
         H            1.127249899955     2.489365044008     0.114398013955     1.007825032230

*** Psi4 exiting successfully. Buy a developer a beer!
