                               Psi4 1.4 release

  ==> Input File <==

--------------------------------------------------------------------------
molecule mol {
0 1
 C     0.355130     0.111221    -1.467412
 C    -0.000000    -0.000000     0.000000
 C     0.828100     0.881905     0.953535
 C     2.091555     0.051810     1.254924
 C     2.370953    -0.722993    -0.049363
 C     0.983556    -0.988346    -0.633510
 C    -1.373576    -0.413221     0.414448
 C    -1.542792    -1.321567     1.480545
 C    -2.825059    -1.692334     1.911870
 C    -3.961673    -1.159299     1.279913
 C    -3.805653    -0.253936     0.218219
 C    -2.519836     0.117392    -0.208007
 H    -2.398432     0.829298    -1.030811
 H    -4.686419     0.165723    -0.277661
 O    -5.224199    -1.526822     1.698665
 H    -2.939181    -2.402495     2.736730
 H    -0.656700    -1.746978     1.964470
 H     0.659437    -2.015061    -0.827996
 H    -0.405740    -0.188168    -2.193765
 H     0.996446     0.943276    -1.777222
 H     2.921789    -1.659184     0.134099
 H     2.979683    -0.115336    -0.742780
 H     1.856488    -0.672951     2.054626
 H     2.945544     0.661232     1.596113
 H     0.256631     1.122533     1.863868
 H     1.092347     1.837771     0.466059
 H    -5.873437    -1.081092     1.172715
}

set scf_type df
set basis cc-pVTZ
set reference rhf

mol.update_geometry()
mol.symmetrize(1e-3)

e, wfn = optimize('mp2', return_wfn=True)
oeprop(wfn, "MULLIKEN_CHARGES")
mol.print_out()
print_variables()
--------------------------------------------------------------------------

    Molecular point group: c1
  Charge       = 0
  Multiplicity = 1
  Basis Set: CC-PVTZ
    Blend: CC-PVTZ
  Basis Set: (CC-PVTZ AUX)
    Blend: CC-PVTZ-JKFIT
  @DF-RHF Final Energy:  -537.57115012218776
    Total Energy =                       -537.5711501221877597
  Basis Set: (CC-PVTZ AUX)
    Blend: CC-PVTZ-RI
    Molecular point group: c1
  Basis Set: CC-PVTZ
    Blend: CC-PVTZ
  Basis Set: (CC-PVTZ AUX)
    Blend: CC-PVTZ-JKFIT
  Basis Set: (CC-PVTZ AUX)
    Blend: CC-PVTZ-JKFIT
	 Reference Energy          =    -537.5711501221877597 [Eh]
	 Singles Energy            =      -0.0000000000000000 [Eh]
	 Same-Spin Energy          =      -0.5826269783601183 [Eh]
	 Opposite-Spin Energy      =      -1.8163243639754123 [Eh]
	 Correlation Energy        =      -2.3989513423355309 [Eh]
	 Total Energy              =    -539.9701014645232817 [Eh]
	 SCS Total Energy          =    -539.9449483517449835 [Eh]
  @DF-RHF Final Energy:  -537.57799972054408
    Total Energy =                       -537.5779997205440850
  @DF-RHF Final Energy:  -537.57816762825814
    Total Energy =                       -537.5781676282581429
  @DF-RHF Final Energy:  -537.57812041540262
    Total Energy =                       -537.5781204154026227
  @DF-RHF Final Energy:  -537.57800368781443
    Total Energy =                       -537.5780036878144301
  @DF-RHF Final Energy:  -537.57783169971117
    Total Energy =                       -537.5778316997111688
  @DF-RHF Final Energy:  -537.57770079021009
    Total Energy =                       -537.5777007902100877
  @DF-RHF Final Energy:  -537.57768789768011
    Total Energy =                       -537.5776878976801072
  Multiplicity = 1
  Basis Set: CC-PVTZ
    Blend: CC-PVTZ
  Basis Set: (CC-PVTZ AUX)
    Blend: CC-PVTZ-JKFIT

    Orbital Energies [Eh]
    ---------------------

    Doubly Occupied:

       1A    -20.584591     2A    -11.294528     3A    -11.231271
       4A    -11.230520     5A    -11.227693     6A    -11.226697
       7A    -11.225137     8A    -11.221914     9A    -11.219375
      10A    -11.217823    11A    -11.214317    12A    -11.213891
      13A    -11.213153    14A     -1.403541    15A     -1.189474
      16A     -1.142282    17A     -1.040350    18A     -1.018372
      19A     -1.010514    20A     -0.954049    21A     -0.850149
      22A     -0.847290    23A     -0.814280    24A     -0.778264
      25A     -0.744144    26A     -0.731157    27A     -0.695010
      28A     -0.658730    29A     -0.636013    30A     -0.620881
      31A     -0.599240    32A     -0.589216    33A     -0.588126
      34A     -0.575043    35A     -0.567992    36A     -0.562272
      37A     -0.544354    38A     -0.494675    39A     -0.491686
      40A     -0.484028    41A     -0.473191    42A     -0.470285
      43A     -0.460766    44A     -0.407418    45A     -0.389176
      46A     -0.340402    47A     -0.298602

  @DF-RHF Final Energy:  -537.57767817450713

   => Energetics <=

    Nuclear Repulsion Energy =            768.8971260726149239
    One-Electron Energy =               -2255.3658507914078655
    Two-Electron Energy =                 948.8910465442859277
    Total Energy =                       -537.5776781745071276

  Dipole Moment: [D]
     X:    -0.0514      Y:     0.5968      Z:    -1.0795     Total:     1.2346

  Basis Set: (CC-PVTZ AUX)
    Blend: CC-PVTZ-RI
    Molecular point group: c1
  Basis Set: CC-PVTZ
    Blend: CC-PVTZ
  Basis Set: (CC-PVTZ AUX)
    Blend: CC-PVTZ-JKFIT
  Basis Set: (CC-PVTZ AUX)
    Blend: CC-PVTZ-JKFIT
	 Reference Energy          =    -537.5776781745071276 [Eh]
	 Singles Energy            =      -0.0000000000000000 [Eh]
	 Same-Spin Energy          =      -0.5837280083529920 [Eh]
	 Opposite-Spin Energy      =      -1.8150709502687552 [Eh]
	 Correlation Energy        =      -2.3987989586217471 [Eh]
	 Total Energy              =    -539.9764771331289239 [Eh]

	 ================> DF-SCS-MP2 Energies <==================
	-----------------------------------------------------------
	 SCS Same-Spin Scale       =       0.3333333333333333 [-]
	 SCS Opposite-Spin Scale   =       1.2000000000000000 [-]
	 SCS Same-Spin Energy      =      -0.1945760027843307 [Eh]
	 SCS Opposite-Spin Energy  =      -2.1780851403225063 [Eh]
	 SCS Correlation Energy    =      -2.3726611431068370 [Eh]
	 SCS Total Energy          =    -539.9503393176139525 [Eh]
	-----------------------------------------------------------

  -Total Gradient:
     Atom            X                  Y                   Z
    ------   -----------------  -----------------  -----------------
       1        0.000013311577     0.000030587449    -0.000002131932
       2        0.000002550330    -0.000043313924    -0.000036705440
       3        0.000004542348     0.000004066112     0.000008495453
       4       -0.000000926293    -0.000002145107    -0.000000279745
       5        0.000007610332     0.000009434520     0.000003572832
       6       -0.000029035070     0.000002418954     0.000014130374
       7        0.000005273845     0.000005618602     0.000008061281
       8        0.000010296491     0.000005070561     0.000001733605
       9       -0.000017248695     0.000000287215     0.000005036837
      10        0.000054452110    -0.000001182884    -0.000014795908
      11       -0.000008214969     0.000001255420     0.000005777356
      12       -0.000009220376     0.000003471604    -0.000003335671
      13        0.000000965215    -0.000001441402     0.000000988272
      14        0.000001311581     0.000000641527     0.000000086574
      15       -0.000034960446    -0.000007254501     0.000013962455
      16        0.000004518771     0.000002271440    -0.000003961305
      17        0.000001975792     0.000002201366    -0.000004127476
      18        0.000009095122     0.000003209916    -0.000001332957
      19       -0.000002465827    -0.000008334477     0.000006590460
      20       -0.000004341006    -0.000005353135     0.000001527562
      21       -0.000001068551     0.000002306428    -0.000000645457
      22       -0.000000749681    -0.000004132844     0.000002784442
      23        0.000003930160     0.000004892723    -0.000001754043
      24       -0.000000631561    -0.000002855777     0.000000603598
      25        0.000002029739     0.000000061923    -0.000003487305
      26       -0.000000985457    -0.000003827295     0.000003344995
      27       -0.000012015490     0.000002045579    -0.000004138866

  **** Optimization is complete! (in 9 steps) ****
    Final optimized geometry and variables:
    Molecular point group: c1

  Mulliken Charges: (a.u.)
   Center  Symbol    Alpha    Beta     Spin     Total
       1     C     3.21301  3.21301  0.00000 -0.42602
       2     C     2.97962  2.97962  0.00000  0.04076
       3     C     3.14413  3.14413  0.00000 -0.28825
       4     C     3.11833  3.11833  0.00000 -0.23667
       5     C     3.13704  3.13704  0.00000 -0.27409
       6     C     3.05083  3.05083  0.00000 -0.10165
       7     C     2.94278  2.94278  0.00000  0.11443
       8     C     3.07646  3.07646  0.00000 -0.15291
       9     C     3.09586  3.09586  0.00000 -0.19171
      10     C     2.89343  2.89343  0.00000  0.21313
      11     C     3.12073  3.12073  0.00000 -0.24146
      12     C     3.08701  3.08701  0.00000 -0.17402
      13     H     0.42188  0.42188  0.00000  0.15623
      14     H     0.43605  0.43605  0.00000  0.12790
      15     O     4.14870  4.14870  0.00000 -0.29741
      16     H     0.42266  0.42266  0.00000  0.15467
      17     H     0.42218  0.42218  0.00000  0.15563
      18     H     0.42423  0.42423  0.00000  0.15154
      19     H     0.42820  0.42820  0.00000  0.14360
      20     H     0.43557  0.43557  0.00000  0.12886
      21     H     0.43312  0.43312  0.00000  0.13376
      22     H     0.43779  0.43779  0.00000  0.12442
      23     H     0.44092  0.44092  0.00000  0.11815
      24     H     0.43440  0.43440  0.00000  0.13121
      25     H     0.43143  0.43143  0.00000  0.13714
      26     H     0.43678  0.43678  0.00000  0.12644
      27     H     0.38685  0.38685  0.00000  0.22631

   Total alpha = 47.00000, Total beta = 47.00000, Total charge =  0.00000

    Molecular point group: c1

    Geometry (in Angstrom), charge = 0, multiplicity = 1:

       Center              X                  Y                   Z               Mass
    ------------   -----------------  -----------------  -----------------  -----------------
         C            1.481201989678     0.669569386238    -1.992982067891    12.000000000000
         C            1.125272919433     0.553068455171    -0.544448370133    12.000000000000
         C            1.950364287018     1.421752485321     0.399936621748    12.000000000000
         C            3.194791831231     0.589283437539     0.704870783668    12.000000000000
         C            3.473210888634    -0.174282255267    -0.590628643137    12.000000000000
         C            2.097906075595    -0.425418892482    -1.172865909949    12.000000000000
         C           -0.228829691838     0.141916490671    -0.131239038888    12.000000000000
         C           -0.404381789612    -0.573279963693     1.053597627031    12.000000000000
         C           -1.659286672550    -0.960925339353     1.484996312886    12.000000000000
         C           -2.778403684274    -0.638262670336     0.728491864337    12.000000000000
         C           -2.625950096675     0.074089652271    -0.451332841608    12.000000000000
         C           -1.360615584490     0.460573398799    -0.870525159658    12.000000000000
         H           -1.255967261490     1.026763463511    -1.781338614307     1.007825032230
         H           -3.493066917411     0.330484426694    -1.039520500914     1.007825032230
         O           -3.991824670242    -1.048225007133     1.195672654938    15.994914619570
         H           -1.791158502704    -1.516649712058     2.397149113515     1.007825032230
         H            0.459717123640    -0.838171509484     1.642686361860     1.007825032230
         H            1.773283966030    -1.433212005037    -1.370200859110     1.007825032230
         H            0.740520395376     0.378923628306    -2.718632977488     1.007825032230
         H            2.116848490682     1.489734845493    -2.287594502213     1.007825032230
         H            4.010504787382    -1.099815694589    -0.411662513056     1.007825032230
         H            4.076042580932     0.426971532693    -1.269159539526     1.007825032230
         H            2.948323302964    -0.129970641240     1.483349819081     1.007825032230
         H            4.037891337580     1.179729620860     1.052092214164     1.007825032230
         H            1.387193362959     1.668424280480     1.294133958152     1.007825032230
         H            2.222111888472     2.357641575397    -0.085733967032     1.007825032230
         H           -4.665054113647    -0.755735687135     0.575010392671     1.007825032230

*** Psi4 exiting successfully. Buy a developer a beer!
