                               Psi4 1.4 release

  ==> Input File <==

--------------------------------------------------------------------------
memory 32 GB

molecule mol {
1 1
	    C    -0.1564660264   1.2926847351   0.6454518610
	    C     0.3017526054   0.0997667822  -0.0051421030
	    C    -0.5795296054  -1.0295843677  -0.0771519972
	    C    -1.8533311183  -0.9648379761   0.4674219871
	    C    -2.2909815234   0.2362519283   1.0771256122
	    C    -1.4425413392   1.3661451023   1.1605799684
	    C     1.5962233144   0.0442139656  -0.5607966962
	    C     2.6776151248   1.0493318255  -0.3457784210
	    C     3.9590118875   0.1979915693  -0.4671106786
	    C     3.6143626556  -0.7301079006  -1.6372697346
	    C     2.1161302276  -1.0616968224  -1.4396137645
	    C     1.3426700165  -1.1773598530  -2.7722138450
	    H     2.0072550631  -2.0101711431  -0.8770167991
	    H     4.2369120135  -1.6349221787  -1.6824688394
	    H     3.7411451971  -0.1888606451  -2.5909452642
	    H     4.1109316688  -0.3762687727   0.4620401783
	    H     4.8519159453   0.8155308940  -0.6376466762
	    H     2.5798977058   1.6474164772   0.5697066139
	    H     2.6349721865   1.7409536653  -1.2159118932
	    H     0.4944784584   2.1679792754   0.7056682090
	    H    -1.8059790365   2.2791208203   1.6378637149
	   CL    -3.8661438341   0.3180748655   1.7334750950
	    H    -2.5230205749  -1.8273992513   0.4356473432
	    H    -0.2367173287  -1.9648469013  -0.5247221709
	    H     0.2926934247  -1.4704428803  -2.6324458726
	    H     1.8367792792  -1.9342454831  -3.4004134591
	    H     1.3697550664  -0.2168807411  -3.3108102637
}

set scf_type df
set basis cc-pVDZ
set reference rhf

mol.update_geometry()
mol.symmetrize(1e-3)

e, wfn = frequencies('mp2', return_wfn=True)
oeprop(wfn, "MULLIKEN_CHARGES")
mol.print_out()
print_variables()
--------------------------------------------------------------------------

    Molecular point group: c1
  Charge       = 1
  Multiplicity = 1
  Basis Set: CC-PVDZ
    Blend: CC-PVDZ
  Basis Set: (CC-PVDZ AUX)
    Blend: CC-PVDZ-JKFIT
  @DF-RHF Final Energy:  -921.86868621232304
    Total Energy =                       -921.8686862123229275
  Basis Set: (CC-PVDZ AUX)
    Blend: CC-PVDZ-RI
    Molecular point group: c1
  Basis Set: CC-PVDZ
    Blend: CC-PVDZ
  Basis Set: (CC-PVDZ AUX)
    Blend: CC-PVDZ-JKFIT
  Basis Set: (CC-PVDZ AUX)
    Blend: CC-PVDZ-JKFIT
	 Reference Energy          =    -921.8686862123230412 [Eh]
	 Singles Energy            =      -0.0000000000000000 [Eh]
	 Same-Spin Energy          =      -0.4600377053178208 [Eh]
	 Opposite-Spin Energy      =      -1.3072232271835733 [Eh]
	 Correlation Energy        =      -1.7672609325013942 [Eh]
	 Total Energy              =    -923.6359471448243994 [Eh]
	 SCS Total Energy          =    -923.5906999867158902 [Eh]
  @DF-RHF Final Energy:  -921.86868621217263
    Total Energy =                       -921.8686862121726335
  @DF-RHF Final Energy:  -921.86870143322153
    Total Energy =                       -921.8687014332215313
  @DF-RHF Final Energy:  -921.86866940425284
    Total Energy =                       -921.8686694042528416
  @DF-RHF Final Energy:  -921.86869313051693
    Total Energy =                       -921.8686931305169310
  @DF-RHF Final Energy:  -921.86867777410805
    Total Energy =                       -921.8686777741079368
  @DF-RHF Final Energy:  -921.86868558440290
    Total Energy =                       -921.8686855844027832
  @DF-RHF Final Energy:  -921.86868617122445
    Total Energy =                       -921.8686861712244536
  @DF-RHF Final Energy:  -921.86868921454106
    Total Energy =                       -921.8686892145410638
  @DF-RHF Final Energy:  -921.86868182652915
    Total Energy =                       -921.8686818265291549
  @DF-RHF Final Energy:  -921.86868490610732
    Total Energy =                       -921.8686849061073190
  @DF-RHF Final Energy:  -921.86868617514301
    Total Energy =                       -921.8686861751430115
  @DF-RHF Final Energy:  -921.86868335887357
    Total Energy =                       -921.8686833588735681
  @DF-RHF Final Energy:  -921.86868843599621
    Total Energy =                       -921.8686884359963187
  @DF-RHF Final Energy:  -921.86869921226923
    Total Energy =                       -921.8686992122691208
  @DF-RHF Final Energy:  -921.86867175027646
    Total Energy =                       -921.8686717502764623
  @DF-RHF Final Energy:  -921.86867693630984
    Total Energy =                       -921.8686769363098392
  @DF-RHF Final Energy:  -921.86869400306114
    Total Energy =                       -921.8686940030611368
  @DF-RHF Final Energy:  -921.86867412261631
    Total Energy =                       -921.8686741226163122
  @DF-RHF Final Energy:  -921.86869758237515
    Total Energy =                       -921.8686975823750345
  @DF-RHF Final Energy:  -921.86867536269256
    Total Energy =                       -921.8686753626925565
  @DF-RHF Final Energy:  -921.86869476354980
    Total Energy =                       -921.8686947635499109
  @DF-RHF Final Energy:  -921.86864750174277
    Total Energy =                       -921.8686475017427711
  @DF-RHF Final Energy:  -921.86872096902255
    Total Energy =                       -921.8687209690226609
  @DF-RHF Final Energy:  -921.86869153269879
    Total Energy =                       -921.8686915326989038
  @DF-RHF Final Energy:  -921.86867615970812
    Total Energy =                       -921.8686761597082295
  @DF-RHF Final Energy:  -921.86868218339805
    Total Energy =                       -921.8686821833980503
  @DF-RHF Final Energy:  -921.86868903446907
    Total Energy =                       -921.8686890344690710
  @DF-RHF Final Energy:  -921.86870190370382
    Total Energy =                       -921.8687019037038226
  @DF-RHF Final Energy:  -921.86866680103640
    Total Energy =                       -921.8686668010363974
  @DF-RHF Final Energy:  -921.86866842696065
    Total Energy =                       -921.8686684269607667
  @DF-RHF Final Energy:  -921.86870117211140
    Total Energy =                       -921.8687011721112867
  @DF-RHF Final Energy:  -921.86867754157458
    Total Energy =                       -921.8686775415746979
  @DF-RHF Final Energy:  -921.86869291416724
    Total Energy =                       -921.8686929141672408
  @DF-RHF Final Energy:  -921.86863470786034
    Total Energy =                       -921.8686347078603376
  @DF-RHF Final Energy:  -921.86873088712036
    Total Energy =                       -921.8687308871203641
  @DF-RHF Final Energy:  -921.86867384637537
    Total Energy =                       -921.8686738463752590
  @DF-RHF Final Energy:  -921.86869313247973
    Total Energy =                       -921.8686931324796205
  @DF-RHF Final Energy:  -921.86872684193781
    Total Energy =                       -921.8687268419378142
  Charge       = 1
  Multiplicity = 1
  Basis Set: CC-PVDZ
    Blend: CC-PVDZ
  Basis Set: (CC-PVDZ AUX)
    Blend: CC-PVDZ-JKFIT

    Orbital Energies [Eh]
    ---------------------

    Doubly Occupied:

       1A   -104.983965     2A    -11.498095     3A    -11.495542
       4A    -11.443780     5A    -11.443278     6A    -11.425745
       7A    -11.411922     8A    -11.411434     9A    -11.407170
      10A    -11.406710    11A    -11.379618    12A    -11.378279
      13A    -11.373741    14A    -10.711059    15A     -8.178646
      16A     -8.174950    17A     -8.174762    18A     -1.360922
      19A     -1.330428    20A     -1.277943    21A     -1.202122
      22A     -1.190577    23A     -1.176671    24A     -1.103313
      25A     -1.052819    26A     -1.011055    27A     -0.994961
      28A     -0.944290    29A     -0.907003    30A     -0.861106
      31A     -0.824778    32A     -0.815322    33A     -0.795339
      34A     -0.776195    35A     -0.769624    36A     -0.741116
      37A     -0.723308    38A     -0.708196    39A     -0.701449
      40A     -0.692871    41A     -0.686342    42A     -0.669534
      43A     -0.662445    44A     -0.637296    45A     -0.630929
      46A     -0.619964    47A     -0.614328    48A     -0.611015
      49A     -0.596153    50A     -0.513771    51A     -0.503171

  @DF-RHF Final Energy:  -921.86863884055742

   => Energetics <=

    Nuclear Repulsion Energy =            833.7780798274393419
    One-Electron Energy =               -2899.2833367178673143
    Two-Electron Energy =                1143.6366180498705489
    Total Energy =                       -921.8686388405574235

  Dipole Moment: [D]
     X:     4.0827      Y:     0.0659      Z:    -1.5572     Total:     4.3701

  Basis Set: (CC-PVDZ AUX)
    Blend: CC-PVDZ-RI
    Molecular point group: c1
  Basis Set: CC-PVDZ
    Blend: CC-PVDZ
  Basis Set: (CC-PVDZ AUX)
    Blend: CC-PVDZ-JKFIT
  Basis Set: (CC-PVDZ AUX)
    Blend: CC-PVDZ-JKFIT
	 Reference Energy          =    -921.8686388405574235 [Eh]
	 Singles Energy            =      -0.0000000000000000 [Eh]
	 Same-Spin Energy          =      -0.4600420591464006 [Eh]
	 Opposite-Spin Energy      =      -1.3072629253500334 [Eh]
	 Correlation Energy        =      -1.7673049844964339 [Eh]
	 Total Energy              =    -923.6359438250538005 [Eh]

	 ================> DF-SCS-MP2 Energies <==================
	-----------------------------------------------------------
	 SCS Same-Spin Scale       =       0.3333333333333333 [-]
	 SCS Opposite-Spin Scale   =       1.2000000000000000 [-]
	 SCS Same-Spin Energy      =      -0.1533473530488002 [Eh]
	 SCS Opposite-Spin Energy  =      -1.5687155104200401 [Eh]
	 SCS Correlation Energy    =      -1.7220628634688402 [Eh]
	 SCS Total Energy          =    -923.5907017040262872 [Eh]
	-----------------------------------------------------------

  -Total Gradient:
     Atom            X                  Y                   Z
    ------   -----------------  -----------------  -----------------
       1       -0.000004882445     0.000008155419    -0.000015035917
       2        0.000016261989    -0.000005165867     0.000020419473
       3        0.000000984399    -0.000006299925     0.000020690268
       4        0.000001770143    -0.000004458349    -0.000002627293
       5       -0.000000257784     0.000001111076     0.000001468644
       6        0.000000263995     0.000001508038    -0.000001424596
       7        0.000011457951     0.000007668634     0.000006538354
       8       -0.000004220383     0.000009931026    -0.000001547112
       9       -0.000001735719    -0.000004980056     0.000003062018
      10       -0.000002897283    -0.000007680455     0.000003615956
      11       -0.000031699079     0.000011544674    -0.000015546452
      12       -0.000369242322    -0.000140694900     0.000837581105
      13       -0.000006554226    -0.000003282299    -0.000005450174
      14        0.000000206777    -0.000000116385    -0.000001926216
      15        0.000001485383     0.000001889158     0.000001658485
      16        0.000001551482     0.000001132946     0.000001382924
      17       -0.000001104306    -0.000000101950    -0.000001672788
      18       -0.000001483408    -0.000005967868     0.000002721957
      19        0.000002074344     0.000004140135     0.000003363427
      20       -0.000000790673     0.000000667664     0.000000340930
      21       -0.000000092536     0.000000366403    -0.000001007026
      22        0.000000982056     0.000000057005     0.000000057457
      23       -0.000000324704     0.000000047619     0.000000032727
      24        0.000001739743    -0.000001243309    -0.000003693942
      25        0.000012358166    -0.000007651774    -0.000013851163
      26        0.000430660866    -0.000837786211    -0.000462094085
      27       -0.000056512466     0.000977209559    -0.000377056961

  Vibration                       7                   8                   9
  Freq [cm^-1]                 48.2926             78.2017             82.3390
  Irrep                           A                   A                   A
  Reduced mass [u]              4.2429              2.9295              3.2975
  Force const [mDyne/A]         0.0058              0.0106              0.0132

  Vibration                       10                  11                  12
  Freq [cm^-1]                 132.9354            162.5887            222.7822
  Irrep                           A                   A                   A
  Reduced mass [u]              4.8726              3.2862              1.1693
  Force const [mDyne/A]         0.0507              0.0512              0.0342

  Vibration                       13                  14                  15
  Freq [cm^-1]                 236.5098            261.8989            295.2625
  Irrep                           A                   A                   A
  Reduced mass [u]              2.7257              4.3942              4.0835
  Force const [mDyne/A]         0.0898              0.1776              0.2097

  Vibration                       16                  17                  18
  Freq [cm^-1]                 313.5569            376.2649            391.3988
  Irrep                           A                   A                   A
  Reduced mass [u]              3.3931              2.4075              2.9373
  Force const [mDyne/A]         0.1966              0.2008              0.2651

  Vibration                       19                  20                  21
  Freq [cm^-1]                 445.7476            484.2995            502.8725
  Irrep                           A                   A                   A
  Reduced mass [u]              3.4032              2.9574              3.4393
  Force const [mDyne/A]         0.3984              0.4087              0.5124

  Vibration                       22                  23                  24
  Freq [cm^-1]                 543.3412            612.8236            621.4629
  Irrep                           A                   A                   A
  Reduced mass [u]              2.4077              3.5427              5.4833
  Force const [mDyne/A]         0.4188              0.7839              1.2477

  Vibration                       25                  26                  27
  Freq [cm^-1]                 636.9884            689.2492            750.2397
  Irrep                           A                   A                   A
  Reduced mass [u]              4.1182              3.3626              5.5359
  Force const [mDyne/A]         0.9845              0.9412              1.8359

  Vibration                       28                  29                  30
  Freq [cm^-1]                 824.1532            837.3378            850.9814
  Irrep                           A                   A                   A
  Reduced mass [u]              1.2852              1.4882              1.6926
  Force const [mDyne/A]         0.5143              0.6148              0.7222

  Vibration                       31                  32                  33
  Freq [cm^-1]                 871.2526            910.5296            952.9518
  Irrep                           A                   A                   A
  Reduced mass [u]              1.7452              2.3122              1.9434
  Force const [mDyne/A]         0.7805              1.1294              1.0398

  Vibration                       34                  35                  36
  Freq [cm^-1]                 964.7923            971.0750            976.6224
  Irrep                           A                   A                   A
  Reduced mass [u]              1.1789              1.4038              1.3326
  Force const [mDyne/A]         0.6465              0.7799              0.7489

  Vibration                       37                  38                  39
  Freq [cm^-1]                 983.3508            989.0855           1009.5465
  Irrep                           A                   A                   A
  Reduced mass [u]              1.3606              2.3800              2.8283
  Force const [mDyne/A]         0.7752              1.3718              1.6984

  Vibration                       40                  41                  42
  Freq [cm^-1]                1038.6670           1070.5150           1131.2901
  Irrep                           A                   A                   A
  Reduced mass [u]              1.7124              2.1567              1.6031
  Force const [mDyne/A]         1.0884              1.4562              1.2088

  Vibration                       43                  44                  45
  Freq [cm^-1]                1132.8773           1141.6038           1173.9845
  Irrep                           A                   A                   A
  Reduced mass [u]              1.7732              2.9757              1.6858
  Force const [mDyne/A]         1.3408              2.2849              1.3689

  Vibration                       46                  47                  48
  Freq [cm^-1]                1205.6418           1214.8776           1221.2524
  Irrep                           A                   A                   A
  Reduced mass [u]              1.5762              1.2154              1.9117
  Force const [mDyne/A]         1.3499              1.0569              1.6799

  Vibration                       49                  50                  51
  Freq [cm^-1]                1247.8920           1250.5198           1292.8505
  Irrep                           A                   A                   A
  Reduced mass [u]              1.4354              1.4424              1.4957
  Force const [mDyne/A]         1.3170              1.3290              1.4730

  Vibration                       52                  53                  54
  Freq [cm^-1]                1312.6320           1317.8622           1336.9227
  Irrep                           A                   A                   A
  Reduced mass [u]              1.3509              1.3953              1.5724
  Force const [mDyne/A]         1.3714              1.4277              1.6559

  Vibration                       55                  56                  57
  Freq [cm^-1]                1355.5710           1399.0558           1416.9095
  Irrep                           A                   A                   A
  Reduced mass [u]              1.4521              1.4788              1.1319
  Force const [mDyne/A]         1.5722              1.7055              1.3388

  Vibration                       58                  59                  60
  Freq [cm^-1]                1418.1068           1455.3443           1484.6767
  Irrep                           A                   A                   A
  Reduced mass [u]              2.3330              1.9938              1.0824
  Force const [mDyne/A]         2.7643              2.4881              1.4057

  Vibration                       61                  62                  63
  Freq [cm^-1]                1490.8062           1495.6399           1499.9462
  Irrep                           A                   A                   A
  Reduced mass [u]              1.0503              1.0737              1.1066
  Force const [mDyne/A]         1.3753              1.4152              1.4669

  Vibration                       64                  65                  66
  Freq [cm^-1]                1558.6827           1572.1449           1588.4984
  Irrep                           A                   A                   A
  Reduced mass [u]              8.4123              6.3538              5.6028
  Force const [mDyne/A]        12.0415              9.2526              8.3297

  Vibration                       67                  68                  69
  Freq [cm^-1]                1675.0212           3027.5570           3064.4951
  Irrep                           A                   A                   A
  Reduced mass [u]              6.4147              1.0683              1.0815
  Force const [mDyne/A]        10.6039              5.7695              5.9838

  Vibration                       70                  71                  72
  Freq [cm^-1]                3098.4788           3105.3737           3117.8723
  Irrep                           A                   A                   A
  Reduced mass [u]              1.0357              1.0665              1.0635
  Force const [mDyne/A]         5.8582              6.0596              6.0913

  Vibration                       73                  74                  75
  Freq [cm^-1]                3188.0075           3193.1030           3198.3822
  Irrep                           A                   A                   A
  Reduced mass [u]              1.1020              1.0939              1.1052
  Force const [mDyne/A]         6.5987              6.5716              6.6613

  Vibration                       76                  77                  78
  Freq [cm^-1]                3201.6502           3216.4882           3255.0147
  Irrep                           A                   A                   A
  Reduced mass [u]              1.1038              1.1039              1.0893
  Force const [mDyne/A]         6.6665              6.7289              6.8000

  Vibration                       79                  80                  81
  Freq [cm^-1]                3257.1356           3269.5900           3271.0775
  Irrep                           A                   A                   A
  Reduced mass [u]              1.0893              1.0982              1.0984
  Force const [mDyne/A]         6.8086              6.9169              6.9248

  ==> Thermochemistry Components <==

  Entropy, S
    Electronic S            0.000 [cal/(mol K)]        0.000 [J/(mol K)]       0.00000000 [mEh/K] (multiplicity = 1)
    Translational S        41.679 [cal/(mol K)]      174.386 [J/(mol K)]       0.06641994 [mEh/K] (mol. weight = 193.0784 [u], P = 101325.00 [Pa])
    Rotational S           31.860 [cal/(mol K)]      133.300 [J/(mol K)]       0.05077139 [mEh/K] (symmetry no. = 1)
    Vibrational S          35.206 [cal/(mol K)]      147.302 [J/(mol K)]       0.05610425 [mEh/K]
  Total S                 108.745 [cal/(mol K)]      454.987 [J/(mol K)]       0.17329558 [mEh/K]
  Correction S              0.000 [cal/(mol K)]        0.000 [J/(mol K)]       0.00000000 [mEh/K]

  Constant volume heat capacity, Cv
    Electronic Cv           0.000 [cal/(mol K)]        0.000 [J/(mol K)]       0.00000000 [mEh/K]
    Translational Cv        2.981 [cal/(mol K)]       12.472 [J/(mol K)]       0.00475022 [mEh/K]
    Rotational Cv           2.981 [cal/(mol K)]       12.472 [J/(mol K)]       0.00475022 [mEh/K]
    Vibrational Cv         40.744 [cal/(mol K)]      170.473 [J/(mol K)]       0.06492963 [mEh/K]
  Total Cv                 46.706 [cal/(mol K)]      195.416 [J/(mol K)]       0.07443006 [mEh/K]
  Correction Cv             0.000 [cal/(mol K)]        0.000 [J/(mol K)]       0.00000000 [mEh/K]

  Constant pressure heat capacity, Cp
    Electronic Cp           0.000 [cal/(mol K)]        0.000 [J/(mol K)]       0.00000000 [mEh/K]
    Translational Cp        4.968 [cal/(mol K)]       20.786 [J/(mol K)]       0.00791703 [mEh/K]
    Rotational Cp           2.981 [cal/(mol K)]       12.472 [J/(mol K)]       0.00475022 [mEh/K]
    Vibrational Cp         40.744 [cal/(mol K)]      170.473 [J/(mol K)]       0.06492963 [mEh/K]
  Total Cp                 48.693 [cal/(mol K)]      203.731 [J/(mol K)]       0.07759688 [mEh/K]
  Correction Cp             0.000 [cal/(mol K)]        0.000 [J/(mol K)]       0.00000000 [mEh/K]

  ==> Thermochemistry Energy Analysis <==

  Raw electronic energy, E0
  Total E0, Electronic energy at well bottom at 0 [K]                 -923.63594714 [Eh]

  Zero-point energy, ZPE_vib = Sum_i nu_i / 2
    Electronic ZPE          0.000 [kcal/mol]        0.000 [kJ/mol]       0.00000000 [Eh]
    Translational ZPE       0.000 [kcal/mol]        0.000 [kJ/mol]       0.00000000 [Eh]
    Rotational ZPE          0.000 [kcal/mol]        0.000 [kJ/mol]       0.00000000 [Eh]
    Vibrational ZPE       144.379 [kcal/mol]      604.083 [kJ/mol]       0.23008297 [Eh]       50497.376 [cm^-1]
  Correction ZPE          144.379 [kcal/mol]      604.083 [kJ/mol]       0.23008297 [Eh]       50497.376 [cm^-1]
  Total ZPE, Electronic energy at 0 [K]                               -923.40586417 [Eh]

  Thermal Energy, E (includes ZPE)
    Electronic E            0.000 [kcal/mol]        0.000 [kJ/mol]       0.00000000 [Eh]
    Translational E         0.889 [kcal/mol]        3.718 [kJ/mol]       0.00141628 [Eh]
    Rotational E            0.889 [kcal/mol]        3.718 [kJ/mol]       0.00141628 [Eh]
    Vibrational E         150.129 [kcal/mol]      628.140 [kJ/mol]       0.23924605 [Eh]
  Correction E            151.907 [kcal/mol]      635.577 [kJ/mol]       0.24207861 [Eh]
  Total E, Electronic energy at  298.15 [K]                           -923.39386854 [Eh]

  Enthalpy, H_trans = E_trans + k_B * T
    Electronic H            0.000 [kcal/mol]        0.000 [kJ/mol]       0.00000000 [Eh]
    Translational H         1.481 [kcal/mol]        6.197 [kJ/mol]       0.00236046 [Eh]
    Rotational H            0.889 [kcal/mol]        3.718 [kJ/mol]       0.00141628 [Eh]
    Vibrational H         150.129 [kcal/mol]      628.140 [kJ/mol]       0.23924605 [Eh]
  Correction H            152.499 [kcal/mol]      638.056 [kJ/mol]       0.24302279 [Eh]
  Total H, Enthalpy at  298.15 [K]                                    -923.39292435 [Eh]

  Gibbs free energy, G = H - T * S
    Electronic G            0.000 [kcal/mol]        0.000 [kJ/mol]       0.00000000 [Eh]
    Translational G       -10.945 [kcal/mol]      -45.796 [kJ/mol]      -0.01744264 [Eh]
    Rotational G           -8.610 [kcal/mol]      -36.025 [kJ/mol]      -0.01372121 [Eh]
    Vibrational G         139.633 [kcal/mol]      584.222 [kJ/mol]       0.22251857 [Eh]
  Correction G            120.077 [kcal/mol]      502.402 [kJ/mol]       0.19135471 [Eh]
  Total G, Free enthalpy at  298.15 [K]                               -923.44459243 [Eh]

  Mulliken Charges: (a.u.)
   Center  Symbol    Alpha    Beta     Spin     Total
       1     C     2.99226  2.99226  0.00000  0.01548
       2     C     3.01896  3.01896  0.00000 -0.03793
       3     C     2.99462  2.99462  0.00000  0.01076
       4     C     2.93484  2.93484  0.00000  0.13032
       5     C     3.08003  3.08003  0.00000 -0.16007
       6     C     2.93593  2.93593  0.00000  0.12814
       7     C     3.00263  3.00263  0.00000 -0.00527
       8     C     3.00925  3.00925  0.00000 -0.01850
       9     C     3.02467  3.02467  0.00000 -0.04935
      10     C     3.00622  3.00622  0.00000 -0.01243
      11     C     3.10446  3.10446  0.00000 -0.20891
      12     C     3.00771  3.00771  0.00000 -0.01542
      13     H     0.45179  0.45179  0.00000  0.09643
      14     H     0.45984  0.45984  0.00000  0.08032
      15     H     0.46713  0.46713  0.00000  0.06574
      16     H     0.46392  0.46392  0.00000  0.07217
      17     H     0.45880  0.45880  0.00000  0.08241
      18     H     0.45263  0.45263  0.00000  0.09474
      19     H     0.44208  0.44208  0.00000  0.11585
      20     H     0.46479  0.46479  0.00000  0.07042
      21     H     0.45770  0.45770  0.00000  0.08459
      22    CL     8.45727  8.45727  0.00000  0.08547
      23     H     0.45801  0.45801  0.00000  0.08398
      24     H     0.46375  0.46375  0.00000  0.07251
      25     H     0.47033  0.47033  0.00000  0.05934
      26     H     0.45412  0.45412  0.00000  0.09175
      27     H     0.46627  0.46627  0.00000  0.06746

   Total alpha = 51.00000, Total beta = 51.00000, Total charge =  1.00000

    Molecular point group: c1

    Geometry (in Angstrom), charge = 1, multiplicity = 1:

       Center              X                  Y                   Z               Mass
    ------------   -----------------  -----------------  -----------------  -----------------
         C           -0.156466026402     1.292684735091     0.645451860993    12.000000000000
         C            0.301752605398     0.099766782191    -0.005142103007    12.000000000000
         C           -0.579529605402    -1.029584367709    -0.077151997207    12.000000000000
         C           -1.853331118302    -0.964837976109     0.467421987093    12.000000000000
         C           -2.290981523402     0.236251928291     1.077125612193    12.000000000000
         C           -1.442541339202     1.366145102291     1.160579968393    12.000000000000
         C            1.596223314398     0.044213965591    -0.560796696207    12.000000000000
         C            2.677615124798     1.049331825491    -0.345778421007    12.000000000000
         C            3.959011887498     0.197991569291    -0.467110678607    12.000000000000
         C            3.614362655598    -0.730107900609    -1.637269734607    12.000000000000
         C            2.116130227598    -1.061696822409    -1.439613764507    12.000000000000
         C            1.342670016498    -1.177359853009    -2.772213845007    12.000000000000
         H            2.007255063098    -2.010171143109    -0.877016799107     1.007825032230
         H            4.236912013498    -1.634922178709    -1.682468839407     1.007825032230
         H            3.741145197098    -0.188860645109    -2.590945264207     1.007825032230
         H            4.110931668798    -0.376268772709     0.462040178293     1.007825032230
         H            4.851915945298     0.815530893991    -0.637646676207     1.007825032230
         H            2.579897705798     1.647416477191     0.569706613893     1.007825032230
         H            2.634972186498     1.740953665291    -1.215911893207     1.007825032230
         H            0.494478458398     2.167979275391     0.705668208993     1.007825032230
         H           -1.805979036502     2.279120820291     1.637863714893     1.007825032230
         CL          -3.866143834102     0.318074865491     1.733475094993    34.968852682000
         H           -2.523020574902    -1.827399251309     0.435647343193     1.007825032230
         H           -0.236717328702    -1.964846901309    -0.524722170907     1.007825032230
         H            0.292693424698    -1.470442880309    -2.632445872607     1.007825032230
         H            1.836779279198    -1.934245483109    -3.400413459107     1.007825032230
         H            1.369755066398    -0.216880741109    -3.310810263707     1.007825032230

*** Psi4 exiting successfully. Buy a developer a beer!
