                               Psi4 1.4 release

  ==> Input File <==

--------------------------------------------------------------------------
memory 62 GB

molecule mol {
0 1
 C     0.355130     0.111221    -1.467412
 C    -0.000000    -0.000000     0.000000
 C     0.828100     0.881905     0.953535
 C     2.091555     0.051810     1.254924
 C     2.370953    -0.722993    -0.049363
 C     0.983556    -0.988346    -0.633510
 C    -1.373576    -0.413221     0.414448
 C    -1.542792    -1.321567     1.480545
 C    -2.825059    -1.692334     1.911870
 C    -3.961673    -1.159299     1.279913
 C    -3.805653    -0.253936     0.218219
 C    -2.519836     0.117392    -0.208007
 H    -2.398432     0.829298    -1.030811
 H    -4.686419     0.165723    -0.277661
 O    -5.224199    -1.526822     1.698665
 H    -2.939181    -2.402495     2.736730
 H    -0.656700    -1.746978     1.964470
 H     0.659437    -2.015061    -0.827996
 H    -0.405740    -0.188168    -2.193765
 H     0.996446     0.943276    -1.777222
 H     2.921789    -1.659184     0.134099
 H     2.979683    -0.115336    -0.742780
 H     1.856488    -0.672951     2.054626
 H     2.945544     0.661232     1.596113
 H     0.256631     1.122533     1.863868
 H     1.092347     1.837771     0.466059
 H    -5.873437    -1.081092     1.172715
}

set scf_type df
set basis cc-pVDZ
set reference rhf

mol.update_geometry()
mol.symmetrize(1e-3)

e, wfn = optimize('CCSD', return_wfn=True)
oeprop(wfn, "MULLIKEN_CHARGES")
mol.print_out()
print_variables()
--------------------------------------------------------------------------

    Molecular point group: c1
  Charge       = 0
  Multiplicity = 1
  Basis Set: CC-PVDZ
    Blend: CC-PVDZ
  Basis Set: (CC-PVDZ AUX)
    Blend: CC-PVDZ-JKFIT
  @DF-RHF Final Energy:  -537.43614312955879
    Total Energy =                       -537.4361431295587863
      * MP2 total energy                      = -539.273136245442970
      * CCSD total energy                     = -539.356898008698522
    Molecular point group: c1
  Basis Set: CC-PVDZ
    Blend: CC-PVDZ
  Basis Set: (CC-PVDZ AUX)
    Blend: CC-PVDZ-JKFIT
  @DF-RHF Final Energy:  -537.43668301873095
    Total Energy =                       -537.4366830187309461
      * MP2 total energy                      = -539.274270892674508
      * CCSD total energy                     = -539.358237428216057
  Basis Set: CC-PVDZ
    Blend: CC-PVDZ
  Basis Set: (CC-PVDZ AUX)
    Blend: CC-PVDZ-JKFIT
  @DF-RHF Final Energy:  -537.43686421769689
    Total Energy =                       -537.4368642176968933
      * MP2 total energy                      = -539.274329795957783
      * CCSD total energy                     = -539.358330814726401
  @DF-RHF Final Energy:  -537.43700113185275
    Total Energy =                       -537.4370011318527531
      * MP2 total energy                      = -539.274328068336104
      * CCSD total energy                     = -539.358345454417645
    Blend: CC-PVDZ
  Basis Set: (CC-PVDZ AUX)
    Blend: CC-PVDZ-JKFIT
  @DF-RHF Final Energy:  -537.43705184175417
    Total Energy =                       -537.4370518417541689
      * MP2 total energy                      = -539.274312908691059
      * CCSD total energy                     = -539.358348737509573
  Basis Set: CC-PVDZ
    Blend: CC-PVDZ
  Basis Set: (CC-PVDZ AUX)
    Blend: CC-PVDZ-JKFIT
  @DF-RHF Final Energy:  -537.43706209797040
    Total Energy =                       -537.4370620979703972
      * MP2 total energy                      = -539.274307424886160
      * CCSD total energy                     = -539.358349870423240
  Multiplicity = 1
  Basis Set: CC-PVDZ
    Blend: CC-PVDZ
  Basis Set: (CC-PVDZ AUX)
    Blend: CC-PVDZ-JKFIT

    Orbital Energies [Eh]
    ---------------------

    Doubly Occupied:

       1A    -20.588964     2A    -11.304947     3A    -11.245090
       4A    -11.244096     5A    -11.239496     6A    -11.238187
       7A    -11.236588     8A    -11.234403     9A    -11.231258
      10A    -11.230598    11A    -11.227782    12A    -11.226949
      13A    -11.226159    14A     -1.401689    15A     -1.178143
      16A     -1.133880    17A     -1.031787    18A     -1.012724
      19A     -1.004397    20A     -0.948568    21A     -0.843272
      22A     -0.841578    23A     -0.810778    24A     -0.770797
      25A     -0.738981    26A     -0.724364    27A     -0.685769
      28A     -0.653068    29A     -0.627312    30A     -0.615500
      31A     -0.593916    32A     -0.583820    33A     -0.581372
      34A     -0.568802    35A     -0.562451    36A     -0.558692
      37A     -0.540348    38A     -0.488587    39A     -0.486684
      40A     -0.480048    41A     -0.469296    42A     -0.466212
      43A     -0.455906    44A     -0.403828    45A     -0.384497
      46A     -0.336957    47A     -0.299724

  @DF-RHF Final Energy:  -537.43706619700129

   => Energetics <=

    Nuclear Repulsion Energy =            758.3165522406600303
    One-Electron Energy =               -2233.9907036511872320
    Two-Electron Energy =                 938.2370852135259156
    Total Energy =                       -537.4370661970012861

  Dipole Moment: [D]
     X:    -0.1432      Y:     0.8877      Z:    -0.8644     Total:     1.2473

      * MP2 total energy                      = -539.274308271217819
      * CCSD total energy                     = -539.358350863282226
    Molecular point group: c1

  -Total gradient:
     Atom            X                  Y                   Z
    ------   -----------------  -----------------  -----------------
       1        0.000003252856     0.000011006392     0.000006450641
       2        0.000003331834    -0.000015236554     0.000019241520
       3        0.000014873337     0.000008808985    -0.000010473895
       4       -0.000002467135    -0.000011000197     0.000012540126
       5        0.000002495670     0.000019244802    -0.000022035424
       6        0.000009354271    -0.000014842168    -0.000014374580
       7       -0.000102787162     0.000125404784    -0.000103123592
       8       -0.000056059535    -0.000107970240     0.000120964582
       9        0.000035593247     0.000017836872    -0.000030024241
      10        0.000102042268     0.000080879634    -0.000056953860
      11       -0.000095506939    -0.000076495207     0.000081455401
      12        0.000089722048    -0.000012891174    -0.000018670389
      13       -0.000000923939    -0.000001282221     0.000005572667
      14        0.000010591602     0.000017050904    -0.000019023241
      15       -0.000078654707    -0.000022074107     0.000016010321
      16        0.000015411343    -0.000004366083     0.000005149849
      17        0.000017479848     0.000019671525    -0.000017960087
      18       -0.000001001894     0.000000369907    -0.000002593510
      19        0.000003718019    -0.000011312638    -0.000003460958
      20        0.000008947527    -0.000003952898     0.000006568502
      21       -0.000001281670    -0.000005271671     0.000010756871
      22        0.000004981404    -0.000005533696    -0.000004301065
      23        0.000003397573    -0.000002928675     0.000006519872
      24        0.000004262513     0.000001781209    -0.000004394434
      25        0.000000008072    -0.000008647049     0.000012115130
      26       -0.000016479222     0.000003343817     0.000004702840
      27        0.000025698761    -0.000001594253    -0.000000659045

  **** Optimization is complete! (in 7 steps) ****
    Final optimized geometry and variables:
    Molecular point group: c1

  Mulliken Charges: (a.u.)
   Center  Symbol    Alpha    Beta     Spin     Total
       1     C     2.96500  2.96500  0.00000  0.07000
       2     C     3.12049  3.12049  0.00000 -0.24099
       3     C     2.97295  2.97295  0.00000  0.05409
       4     C     3.02195  3.02195  0.00000 -0.04391
       5     C     2.99297  2.99297  0.00000  0.01406
       6     C     3.05124  3.05124  0.00000 -0.10249
       7     C     3.04315  3.04315  0.00000 -0.08629
       8     C     2.98291  2.98291  0.00000  0.03419
       9     C     2.99727  2.99727  0.00000  0.00546
      10     C     2.96134  2.96134  0.00000  0.07731
      11     C     3.02113  3.02113  0.00000 -0.04225
      12     C     2.98773  2.98773  0.00000  0.02453
      13     H     0.49640  0.49640  0.00000  0.00721
      14     H     0.49414  0.49414  0.00000  0.01172
      15     O     4.11192  4.11192  0.00000 -0.22385
      16     H     0.48888  0.48888  0.00000  0.02224
      17     H     0.49727  0.49727  0.00000  0.00546
      18     H     0.49113  0.49113  0.00000  0.01773
      19     H     0.48154  0.48154  0.00000  0.03693
      20     H     0.48566  0.48566  0.00000  0.02868
      21     H     0.48369  0.48369  0.00000  0.03261
      22     H     0.48501  0.48501  0.00000  0.02998
      23     H     0.48446  0.48446  0.00000  0.03109
      24     H     0.48817  0.48817  0.00000  0.02367
      25     H     0.48361  0.48361  0.00000  0.03277
      26     H     0.48607  0.48607  0.00000  0.02786
      27     H     0.42390  0.42390  0.00000  0.15220

   Total alpha = 47.00000, Total beta = 47.00000, Total charge =  0.00000

    Molecular point group: c1

    Geometry (in Angstrom), charge = 0, multiplicity = 1:

       Center              X                  Y                   Z               Mass
    ------------   -----------------  -----------------  -----------------  -----------------
         C            1.528271381876     0.641971566167    -1.993097016674    12.000000000000
         C            1.159674497359     0.523837571431    -0.526791465060    12.000000000000
         C            1.978996073034     1.413778304647     0.435137699947    12.000000000000
         C            3.263177407898     0.603639075482     0.728005395780    12.000000000000
         C            3.537488214059    -0.202376309919    -0.564028453997    12.000000000000
         C            2.145599529886    -0.462006028937    -1.153954372933    12.000000000000
         C           -0.231212806530     0.119309976823    -0.129905781888    12.000000000000
         C           -0.435023619184    -0.848525111308     0.877617365628    12.000000000000
         C           -1.720549173747    -1.209901684051     1.293938182494    12.000000000000
         C           -2.843780444948    -0.602273715667     0.703569881384    12.000000000000
         C           -2.661964703905     0.361953420317    -0.298720513042    12.000000000000
         C           -1.363889022846     0.716587942178    -0.705563347196    12.000000000000
         H           -1.235109791066     1.473360078830    -1.486770357525     1.007825032230
         H           -3.532299958713     0.839552946114    -0.765002452402     1.007825032230
         O           -4.078991673514    -0.995971217138     1.145592321375    15.994914619570
         H           -1.876962892104    -1.964069852672     2.070628211593     1.007825032230
         H            0.433560320977    -1.333451364647     1.337618853272     1.007825032230
         H            1.829611043749    -1.490089541354    -1.359110853818     1.007825032230
         H            0.772930089785     0.348334477569    -2.729346420536     1.007825032230
         H            2.171968102425     1.475247411410    -2.299207036109     1.007825032230
         H            4.074078396522    -1.143632183555    -0.355661191459     1.007825032230
         H            4.162132133795     0.379075248571    -1.268044441772     1.007825032230
         H            3.055339305243    -0.105155069421     1.551968408674     1.007825032230
         H            4.115130294172     1.233392297556     1.040030937054     1.007825032230
         H            1.409572623994     1.634420039250     1.353300904075     1.007825032230
         H            2.221457141639     2.382391703199    -0.041364328947     1.007825032230
         H           -4.740369287184    -0.496141857999     0.650816202883     1.007825032230

*** Psi4 exiting successfully. Buy a developer a beer!
