                               Psi4 1.4 release

  ==> Input File <==

--------------------------------------------------------------------------
molecule mol {
0 1
C 0.00000000 0.00000000 0.00000000
C -1.33160900 -0.52821100 0.39484800
C -1.43071100 -1.45269700 1.36587800
C -2.62792500 -1.93591800 1.73239500
C -3.74244100 -1.49412800 1.13010500
C -3.65384200 -0.56756700 0.16376000
C -2.45408900 -0.08753000 -0.19926200
H -2.39924400 0.68070000 -0.98910300
H -4.56915100 -0.19773500 -0.33032400
H -4.72851800 -1.88886800 1.43070300
H -2.69633900 -2.69630400 2.52975600
H -0.52149000 -1.82349700 1.86898600
C 0.80291000 0.82866100 0.99372200
C 2.05469100 -0.01352700 1.29254400
C 2.33965600 -0.73613400 -0.03532100
C 0.96570300 -0.98706800 -0.64018800
H 0.68568600 -2.02295000 -0.82494200
C 0.34304200 0.10457800 -1.46989700
H -0.39656500 -0.20546400 -2.20363900
H 0.96769800 0.93522300 -1.78708200
H 2.89906800 -1.68689100 0.13106700
H 2.94532000 -0.09317900 -0.71653600
H 1.81957400 -0.76486100 2.08426400
H 2.91658800 0.60476700 1.63908400
H 0.22390900 1.05449200 1.91967800
H 1.08828700 1.79961000 0.52491500
}

set scf_type df
set basis cc-pVDZ
set reference rhf

mol.update_geometry()
mol.symmetrize(1e-3)

e, wfn = optimize('mp2', return_wfn=True)
oeprop(wfn, "MULLIKEN_CHARGES")
mol.print_out()
print_variables()
--------------------------------------------------------------------------

    Molecular point group: c1
  Charge       = 0
  Multiplicity = 1
  Basis Set: CC-PVDZ
    Blend: CC-PVDZ
  Basis Set: (CC-PVDZ AUX)
    Blend: CC-PVDZ-JKFIT
  @DF-RHF Final Energy:  -462.55429484526803
    Total Energy =                       -462.5542948452680321
  Basis Set: (CC-PVDZ AUX)
    Blend: CC-PVDZ-RI
    Molecular point group: c1
  Basis Set: CC-PVDZ
    Blend: CC-PVDZ
  Basis Set: (CC-PVDZ AUX)
    Blend: CC-PVDZ-JKFIT
  Basis Set: (CC-PVDZ AUX)
    Blend: CC-PVDZ-JKFIT
	 Reference Energy          =    -462.5542948452680321 [Eh]
	 Singles Energy            =      -0.0000000000000000 [Eh]
	 Same-Spin Energy          =      -0.4284725585883728 [Eh]
	 Opposite-Spin Energy      =      -1.2131601472748286 [Eh]
	 Correlation Energy        =      -1.6416327058632014 [Eh]
	 Total Energy              =    -464.1959275511312057 [Eh]
	 SCS Total Energy          =    -464.1529112081939275 [Eh]
  @DF-RHF Final Energy:  -462.57123607931999
    Total Energy =                       -462.5712360793199878
  @DF-RHF Final Energy:  -462.57204168053852
    Total Energy =                       -462.5720416805385184
  @DF-RHF Final Energy:  -462.57220245463674
    Total Energy =                       -462.5722024546366811
  @DF-RHF Final Energy:  -462.57223433040690
    Total Energy =                       -462.5722343304069000
  @DF-RHF Final Energy:  -462.57228935001177
    Total Energy =                       -462.5722893500117152
  @DF-RHF Final Energy:  -462.57232569939742
    Total Energy =                       -462.5723256993974246
  Multiplicity = 1
  Basis Set: CC-PVDZ
    Blend: CC-PVDZ
  Basis Set: (CC-PVDZ AUX)
    Blend: CC-PVDZ-JKFIT

    Orbital Energies [Eh]
    ---------------------

    Doubly Occupied:

       1A    -11.243115     2A    -11.240805     3A    -11.240342
       4A    -11.238028     5A    -11.237122     6A    -11.236689
       7A    -11.236062     8A    -11.231537     9A    -11.230648
      10A    -11.227428    11A    -11.227129    12A    -11.225980
      13A     -1.181224    14A     -1.134755    15A     -1.035810
      16A     -1.010578    17A     -1.005244    18A     -0.951228
      19A     -0.844232    20A     -0.822458    21A     -0.809592
      22A     -0.771789    23A     -0.736475    24A     -0.694895
      25A     -0.657572    26A     -0.631466    27A     -0.616671
      28A     -0.608958    29A     -0.578666    30A     -0.573160
      31A     -0.563862    32A     -0.562775    33A     -0.519541
      34A     -0.495508    35A     -0.488354    36A     -0.479356
      37A     -0.470775    38A     -0.467058    39A     -0.461436
      40A     -0.406449    41A     -0.386140    42A     -0.329766
      43A     -0.315637

  @DF-RHF Final Energy:  -462.57234386316281

   => Energetics <=

    Nuclear Repulsion Energy =            665.9714671317369721
    One-Electron Energy =               -1946.2349917533451844
    Two-Electron Energy =                 817.6911807584453982
    Total Energy =                       -462.5723438631628142

  Dipole Moment: [D]
     X:     0.2636      Y:    -0.0360      Z:     0.0611     Total:     0.2730

  Basis Set: (CC-PVDZ AUX)
    Blend: CC-PVDZ-RI
    Molecular point group: c1
  Basis Set: CC-PVDZ
    Blend: CC-PVDZ
  Basis Set: (CC-PVDZ AUX)
    Blend: CC-PVDZ-JKFIT
  Basis Set: (CC-PVDZ AUX)
    Blend: CC-PVDZ-JKFIT
	 Reference Energy          =    -462.5723438631628142 [Eh]
	 Singles Energy            =      -0.0000000000000000 [Eh]
	 Same-Spin Energy          =      -0.4292765165478575 [Eh]
	 Opposite-Spin Energy      =      -1.2219259431129741 [Eh]
	 Correlation Energy        =      -1.6512024596608317 [Eh]
	 Total Energy              =    -464.2235463228236654 [Eh]

	 ================> DF-SCS-MP2 Energies <==================
	-----------------------------------------------------------
	 SCS Same-Spin Scale       =       0.3333333333333333 [-]
	 SCS Opposite-Spin Scale   =       1.2000000000000000 [-]
	 SCS Same-Spin Energy      =      -0.1430921721826192 [Eh]
	 SCS Opposite-Spin Energy  =      -1.4663111317355688 [Eh]
	 SCS Correlation Energy    =      -1.6094033039181881 [Eh]
	 SCS Total Energy          =    -464.1817471670810278 [Eh]
	-----------------------------------------------------------

  -Total Gradient:
     Atom            X                  Y                   Z
    ------   -----------------  -----------------  -----------------
       1       -0.000068625279    -0.000074264513    -0.000084437633
       2       -0.000027739498     0.000041975149     0.000019791120
       3        0.000048046673     0.000032177361    -0.000019463282
       4        0.000003965680     0.000002657478     0.000017517032
       5       -0.000025911354    -0.000002856188    -0.000004861017
       6       -0.000010584704    -0.000009752823     0.000006906879
       7        0.000037093923    -0.000018828151    -0.000018981857
       8       -0.000007435550     0.000005640188     0.000009045634
       9       -0.000002508522     0.000004005814    -0.000004409806
      10        0.000009188799    -0.000001897825     0.000000600617
      11        0.000000579851    -0.000004711711    -0.000001472810
      12       -0.000005243711    -0.000000272773     0.000010604180
      13        0.000038084254    -0.000008562575    -0.000003325659
      14       -0.000037066076    -0.000005149959     0.000041245856
      15        0.000026606877     0.000009557765    -0.000077748437
      16        0.000024283058     0.000047516583     0.000024761208
      17        0.000002570913    -0.000003116118    -0.000004471107
      18       -0.000011891865     0.000031590368     0.000077351612
      19        0.000015243896    -0.000019945627    -0.000018996471
      20        0.000003058556    -0.000004572005    -0.000002938708
      21       -0.000022803638    -0.000017469738     0.000000880897
      22        0.000003670229    -0.000020633537     0.000014877627
      23        0.000015254487     0.000011210370    -0.000003520208
      24        0.000000844108     0.000007264357     0.000004206962
      25       -0.000003142766     0.000002777757     0.000005936684
      26       -0.000005538347    -0.000004339645     0.000010900689

  **** Optimization is complete! (in 8 steps) ****
    Final optimized geometry and variables:
    Molecular point group: c1

  Mulliken Charges: (a.u.)
   Center  Symbol    Alpha    Beta     Spin     Total
       1     C     3.12317  3.12317  0.00000 -0.24634
       2     C     3.02796  3.02796  0.00000 -0.05592
       3     C     2.99354  2.99354  0.00000  0.01292
       4     C     3.00429  3.00429  0.00000 -0.00859
       5     C     3.00910  3.00910  0.00000 -0.01821
       6     C     3.00455  3.00455  0.00000 -0.00910
       7     C     2.99809  2.99809  0.00000  0.00383
       8     H     0.49630  0.49630  0.00000  0.00740
       9     H     0.49094  0.49094  0.00000  0.01812
      10     H     0.49101  0.49101  0.00000  0.01798
      11     H     0.49132  0.49132  0.00000  0.01737
      12     H     0.49785  0.49785  0.00000  0.00430
      13     C     2.98030  2.98030  0.00000  0.03941
      14     C     3.02898  3.02898  0.00000 -0.05796
      15     C     3.00020  3.00020  0.00000 -0.00041
      16     C     3.05322  3.05322  0.00000 -0.10645
      17     H     0.48798  0.48798  0.00000  0.02403
      18     C     2.97268  2.97268  0.00000  0.05464
      19     H     0.47744  0.47744  0.00000  0.04512
      20     H     0.48191  0.48191  0.00000  0.03617
      21     H     0.47982  0.47982  0.00000  0.04036
      22     H     0.48155  0.48155  0.00000  0.03689
      23     H     0.48052  0.48052  0.00000  0.03896
      24     H     0.48513  0.48513  0.00000  0.02974
      25     H     0.47999  0.47999  0.00000  0.04002
      26     H     0.48214  0.48214  0.00000  0.03572

   Total alpha = 43.00000, Total beta = 43.00000, Total charge = -0.00000

    Molecular point group: c1

    Geometry (in Angstrom), charge = 0, multiplicity = 1:

       Center              X                  Y                   Z               Mass
    ------------   -----------------  -----------------  -----------------  -----------------
         C            0.728296168738     0.438937310270    -0.426812958463    12.000000000000
         C           -0.645280133049     0.025716493681    -0.012364537426    12.000000000000
         C           -0.814495744876    -0.882629699697     1.053731856881    12.000000000000
         C           -2.096762980639    -1.253397036015     1.485057098872    12.000000000000
         C           -3.233377504775    -0.720362509952     0.853100086226    12.000000000000
         C           -3.077357501725     0.185000208266    -0.208593912053    12.000000000000
         C           -1.791540654347     0.556328770974    -0.634820089208    12.000000000000
         H           -1.670136167622     1.268234167038    -1.457623938486     1.007825032230
         H           -3.958123316192     0.604659400219    -0.704474428855     1.007825032230
         H           -4.234279681104    -1.011726141473     1.185077840289     1.007825032230
         H           -2.210885056779    -1.963557689809     2.309917271167     1.007825032230
         H            0.071596268001    -1.308040589377     1.537657405270     1.007825032230
         C            1.556396211431     1.320841886679     0.526721769598    12.000000000000
         C            2.819850854809     0.490747321978     0.828111238940    12.000000000000
         C            3.099249026631    -0.284055773214    -0.476176546841    12.000000000000
         C            1.711852060253    -0.549408951981    -1.060323083634    12.000000000000
         H            1.387733240437    -1.576123920735    -1.254809088548     1.007825032230
         C            1.083426044344     0.550157344219    -1.894224670459    12.000000000000
         H            0.322555623061     0.250768737345    -2.620577687386     1.007825032230
         H            1.724741579494     1.382212815237    -2.204035004431     1.007825032230
         H            3.650085289101    -1.220246731175    -0.292713728416     1.007825032230
         H            3.707978552289     0.323601857747    -1.169593619360     1.007825032230
         H            2.584784724594    -0.234013154392     1.627812508635     1.007825032230
         H            3.673839783574     1.100169683553     1.169299404275     1.007825032230
         H            0.984927029157     1.561470391672     1.437055092256     1.007825032230
         H            1.820642738017     2.276708278441     0.039245448964     1.007825032230

*** Psi4 exiting successfully. Buy a developer a beer!
