                               Psi4 1.4 release

  ==> Input File <==

--------------------------------------------------------------------------
memory 32 GB

molecule mol {
1 1
 C     1.263455    -0.830095     0.301389
 C     0.109287    -0.071802     0.026070
 C    -0.866981    -0.615472    -0.835100
 C    -0.695421    -1.885914    -1.404542
 C     0.458870    -2.635169    -1.118854
 C     1.437612    -2.104158    -0.263687
 C    -0.074111     1.299690     0.586965
 C     0.015315     2.507717    -0.364566
 C    -1.356829     3.200190    -0.246615
 C    -1.779295     2.983952     1.221143
 C    -1.190588     1.620997     1.584855
 C     0.256381     1.583570     2.036784
 O     0.627353    -3.887603    -1.673311
 H     2.030351    -0.413010     0.962045
 H     2.339320    -2.681782    -0.037785
 H    -1.464833    -2.295724    -2.066212
 H    -1.772726    -0.036766    -1.047330
 H     0.561801     0.737340     2.658683
 H     0.739137     2.537536     2.274436
 H    -2.074849     2.677217    -0.903124
 H    -1.339762     4.261400    -0.547689
 H    -2.873814     3.001236     1.344677
 H    -1.364046     3.776898     1.868778
 H    -1.846742     0.816672     1.930608
 H     0.234839     2.183127    -1.393952
 H     0.827707     3.188298    -0.051567
 H    -1.181731     2.110837     2.315008
 H     1.450626    -4.253727    -1.381794
}

set scf_type df
set opt_type ts
set basis cc-pVTZ
set reference rhf
set geom_maxiter 400

mol.update_geometry()
mol.symmetrize(1e-3)

e, wfn = optimize('mp2', return_wfn=True)
oeprop(wfn, "MULLIKEN_CHARGES")
mol.print_out()
print_variables()
--------------------------------------------------------------------------

    Molecular point group: c1
  Charge       = 1
  Multiplicity = 1
  Basis Set: CC-PVTZ
    Blend: CC-PVTZ
  Basis Set: (CC-PVTZ AUX)
    Blend: CC-PVTZ-JKFIT
  @DF-RHF Final Energy:  -537.78056015727702
    Total Energy =                       -537.7805601572770229
  Basis Set: (CC-PVTZ AUX)
    Blend: CC-PVTZ-RI
    Molecular point group: c1
  Basis Set: CC-PVTZ
    Blend: CC-PVTZ
  Basis Set: (CC-PVTZ AUX)
    Blend: CC-PVTZ-JKFIT
  Basis Set: (CC-PVTZ AUX)
    Blend: CC-PVTZ-JKFIT
	 Reference Energy          =    -537.7805601572770229 [Eh]
	 Singles Energy            =      -0.0000000000000000 [Eh]
	 Same-Spin Energy          =      -0.5838018488766830 [Eh]
	 Opposite-Spin Energy      =      -1.8229884243487156 [Eh]
	 Correlation Energy        =      -2.4067902732253987 [Eh]
	 Total Energy              =    -540.1873504305024198 [Eh]
	 SCS Total Energy          =    -540.1627468827877010 [Eh]
  @DF-RHF Final Energy:  -537.85203301009562
    Total Energy =                       -537.8520330100956244
  @DF-RHF Final Energy:  -537.87452509966170
    Total Energy =                       -537.8745250996616960
  @DF-RHF Final Energy:  -537.88897119312901
    Total Energy =                       -537.8889711931290094
  @DF-RHF Final Energy:  -537.89689796869675
    Total Energy =                       -537.8968979686967486
  @DF-RHF Final Energy:  -537.90141689465531
    Total Energy =                       -537.9014168946553127
  @DF-RHF Final Energy:  -537.90597966657697
    Total Energy =                       -537.9059796665769682
  @DF-RHF Final Energy:  -537.91114378643874
    Total Energy =                       -537.9111437864387426
  @DF-RHF Final Energy:  -537.91630570675966
    Total Energy =                       -537.9163057067596583
  @DF-RHF Final Energy:  -537.92117798914921
    Total Energy =                       -537.9211779891492142
  @DF-RHF Final Energy:  -537.91719789027093
    Total Energy =                       -537.9171978902709270
  @DF-RHF Final Energy:  -537.91672351705211
    Total Energy =                       -537.9167235170521053
  @DF-RHF Final Energy:  -537.91403265729912
    Total Energy =                       -537.9140326572991171
  @DF-RHF Final Energy:  -537.91176335209536
    Total Energy =                       -537.9117633520953632
  @DF-RHF Final Energy:  -537.90949856665884
    Total Energy =                       -537.9094985666588400
  @DF-RHF Final Energy:  -537.90729170253519
    Total Energy =                       -537.9072917025351899
  @DF-RHF Final Energy:  -537.90550791718510
    Total Energy =                       -537.9055079171851048
  @DF-RHF Final Energy:  -537.90496685175890
    Total Energy =                       -537.9049668517588998
  @DF-RHF Final Energy:  -537.90917726678697
    Total Energy =                       -537.9091772667869691
  @DF-RHF Final Energy:  -537.91063470478628
    Total Energy =                       -537.9106347047862755
  @DF-RHF Final Energy:  -537.92400162343858
    Total Energy =                       -537.9240016234385848
  @DF-RHF Final Energy:  -537.92691918611240
    Total Energy =                       -537.9269191861124000
  @DF-RHF Final Energy:  -537.92857241445756
    Total Energy =                       -537.9285724144575624
  @DF-RHF Final Energy:  -537.92915175059511
    Total Energy =                       -537.9291517505951106
  @DF-RHF Final Energy:  -537.92997919134393
    Total Energy =                       -537.9299791913439321
  @DF-RHF Final Energy:  -537.93117829341213
    Total Energy =                       -537.9311782934121311
  @DF-RHF Final Energy:  -537.93167196580407
    Total Energy =                       -537.9316719658040711
  @DF-RHF Final Energy:  -537.93125484211544
    Total Energy =                       -537.9312548421154361
  @DF-RHF Final Energy:  -537.93152901918461
    Total Energy =                       -537.9315290191846088
  @DF-RHF Final Energy:  -537.93210732731723
    Total Energy =                       -537.9321073273172260
  @DF-RHF Final Energy:  -537.93254427437796
    Total Energy =                       -537.9325442743779604
  @DF-RHF Final Energy:  -537.93253475052734
    Total Energy =                       -537.9325347505273385
  @DF-RHF Final Energy:  -537.93276511365843
    Total Energy =                       -537.9327651136584336
  @DF-RHF Final Energy:  -537.93143141186874
    Total Energy =                       -537.9314314118687435
  @DF-RHF Final Energy:  -537.93306407981868
    Total Energy =                       -537.9330640798186778
  @DF-RHF Final Energy:  -537.93274942276923
    Total Energy =                       -537.9327494227692341
  @DF-RHF Final Energy:  -537.93283124565107
    Total Energy =                       -537.9328312456510730
  @DF-RHF Final Energy:  -537.93285697886608
    Total Energy =                       -537.9328569788660843
  @DF-RHF Final Energy:  -537.93294879763403
    Total Energy =                       -537.9329487976340261
  Multiplicity = 1
  Basis Set: CC-PVTZ
    Blend: CC-PVTZ
  Basis Set: (CC-PVTZ AUX)
    Blend: CC-PVTZ-JKFIT

    Orbital Energies [Eh]
    ---------------------

    Doubly Occupied:

       1A    -20.708914     2A    -11.520313     3A    -11.437452
       4A    -11.409721     5A    -11.409577     6A    -11.406952
       7A    -11.406708     8A    -11.396446     9A    -11.393507
      10A    -11.392069    11A    -11.378538    12A    -11.369073
      13A    -11.362342    14A     -1.534440    15A     -1.363000
      16A     -1.295479    17A     -1.214960    18A     -1.201103
      19A     -1.168608    20A     -1.148220    21A     -1.029201
      22A     -1.017494    23A     -0.991132    24A     -0.967471
      25A     -0.919861    26A     -0.873608    27A     -0.862516
      28A     -0.821079    29A     -0.807390    30A     -0.796152
      31A     -0.764980    32A     -0.758222    33A     -0.744316
      34A     -0.742342    35A     -0.738180    36A     -0.718523
      37A     -0.704894    38A     -0.698669    39A     -0.670606
      40A     -0.660638    41A     -0.645171    42A     -0.638063
      43A     -0.635941    44A     -0.626935    45A     -0.619334
      46A     -0.487848    47A     -0.454070

  @DF-RHF Final Energy:  -537.93291431588068

   => Energetics <=

    Nuclear Repulsion Energy =            780.4562443948120745
    One-Electron Energy =               -2262.9542024061338452
    Two-Electron Energy =                 944.5650436954410907
    Total Energy =                       -537.9329143158806801

  Dipole Moment: [D]
     X:     1.2297      Y:     5.0755      Z:     1.7929     Total:     5.5215

  Basis Set: (CC-PVTZ AUX)
    Blend: CC-PVTZ-RI
    Molecular point group: c1
  Basis Set: CC-PVTZ
    Blend: CC-PVTZ
  Basis Set: (CC-PVTZ AUX)
    Blend: CC-PVTZ-JKFIT
  Basis Set: (CC-PVTZ AUX)
    Blend: CC-PVTZ-JKFIT
	 Reference Energy          =    -537.9329143158806801 [Eh]
	 Singles Energy            =      -0.0000000000000000 [Eh]
	 Same-Spin Energy          =      -0.5716513516581826 [Eh]
	 Opposite-Spin Energy      =      -1.8036123014219678 [Eh]
	 Correlation Energy        =      -2.3752636530801503 [Eh]
	 Total Energy              =    -540.3081779689608766 [Eh]

	 ================> DF-SCS-MP2 Energies <==================
	-----------------------------------------------------------
	 SCS Same-Spin Scale       =       0.3333333333333333 [-]
	 SCS Opposite-Spin Scale   =       1.2000000000000000 [-]
	 SCS Same-Spin Energy      =      -0.1905504505527275 [Eh]
	 SCS Opposite-Spin Energy  =      -2.1643347617063613 [Eh]
	 SCS Correlation Energy    =      -2.3548852122590889 [Eh]
	 SCS Total Energy          =    -540.2877995281397716 [Eh]
	-----------------------------------------------------------

  -Total Gradient:
     Atom            X                  Y                   Z
    ------   -----------------  -----------------  -----------------
       1        0.000011865964    -0.000022776488     0.000045851221
       2       -0.000062897637     0.000034583067    -0.000011508374
       3        0.000009638639    -0.000022503997     0.000016230830
       4       -0.000003878142     0.000011790619     0.000000647581
       5        0.000008520871    -0.000027836850     0.000005607940
       6       -0.000000645140     0.000015603152     0.000001618685
       7       -0.000048303966     0.000030057156     0.000027823825
       8        0.000115580646    -0.000034650519    -0.000008407281
       9       -0.000038244720    -0.000002336075     0.000051499987
      10       -0.000020067313     0.000028341448    -0.000002917466
      11        0.000084441166    -0.000151441054    -0.000068279517
      12       -0.000049475780     0.000089975909    -0.000105797640
      13       -0.000006031541     0.000019589231     0.000001779116
      14       -0.000000423933     0.000002818436    -0.000008135551
      15       -0.000001421886     0.000003942214    -0.000009615094
      16       -0.000001058583     0.000002412077    -0.000008517860
      17       -0.000003914610     0.000000515133    -0.000004096812
      18        0.000005929633     0.000006344578     0.000010423880
      19       -0.000002607293    -0.000012328909     0.000038596495
      20        0.000003458512    -0.000018976729     0.000015436869
      21       -0.000007597306    -0.000010173655    -0.000002420781
      22        0.000012720129     0.000024386068    -0.000004357206
      23        0.000013982194     0.000006311847    -0.000012502996
      24        0.000018581966    -0.000010182769    -0.000011231254
      25       -0.000011290304     0.000016237213    -0.000008333300
      26       -0.000007391384    -0.000015032580     0.000018812960
      27       -0.000019820201     0.000032530393     0.000033279312
      28        0.000000350009     0.000002801084    -0.000001487577

  **** Optimization is complete! (in 43 steps) ****
    Final optimized geometry and variables:
    Molecular point group: c1

  Mulliken Charges: (a.u.)
   Center  Symbol    Alpha    Beta     Spin     Total
       1     C     3.08560  3.08560  0.00000 -0.17120
       2     C     2.96158  2.96158  0.00000  0.07683
       3     C     3.08433  3.08433  0.00000 -0.16866
       4     C     3.08873  3.08873  0.00000 -0.17747
       5     C     2.89095  2.89095  0.00000  0.21809
       6     C     3.09488  3.09488  0.00000 -0.18976
       7     C     2.92585  2.92585  0.00000  0.14830
       8     C     3.12774  3.12774  0.00000 -0.25548
       9     C     3.13802  3.13802  0.00000 -0.27605
      10     C     3.12826  3.12826  0.00000 -0.25653
      11     C     3.13807  3.13807  0.00000 -0.27614
      12     C     3.12767  3.12767  0.00000 -0.25535
      13     O     4.12609  4.12609  0.00000 -0.25218
      14     H     0.41443  0.41443  0.00000  0.17115
      15     H     0.41688  0.41688  0.00000  0.16624
      16     H     0.40568  0.40568  0.00000  0.18864
      17     H     0.41540  0.41540  0.00000  0.16919
      18     H     0.40127  0.40127  0.00000  0.19745
      19     H     0.40473  0.40473  0.00000  0.19055
      20     H     0.40771  0.40771  0.00000  0.18458
      21     H     0.39972  0.39972  0.00000  0.20057
      22     H     0.40334  0.40334  0.00000  0.19332
      23     H     0.42056  0.42056  0.00000  0.15888
      24     H     0.40774  0.40774  0.00000  0.18452
      25     H     0.40122  0.40122  0.00000  0.19756
      26     H     0.40464  0.40464  0.00000  0.19071
      27     H     0.39979  0.39979  0.00000  0.20042
      28     H     0.37910  0.37910  0.00000  0.24181

   Total alpha = 47.00000, Total beta = 47.00000, Total charge =  1.00000

    Molecular point group: c1

    Geometry (in Angstrom), charge = 1, multiplicity = 1:

       Center              X                  Y                   Z               Mass
    ------------   -----------------  -----------------  -----------------  -----------------
         C            1.575071472011    -0.721047212344    -0.410597849925    12.000000000000
         C            0.368576206390    -0.104578379031    -0.072441653814    12.000000000000
         C           -0.830393436094    -0.798299212756    -0.226616922624    12.000000000000
         C           -0.820632289948    -2.091575630827    -0.713434616821    12.000000000000
         C            0.378083534256    -2.709071905081    -1.051611112018    12.000000000000
         C            1.574296001591    -2.016011210555    -0.897090933803    12.000000000000
         C            0.477315178861     1.254276396405     0.428314716744    12.000000000000
         C            0.331536582658     2.369682461851    -0.459529781223    12.000000000000
         C           -1.222885753503     2.675270672708    -0.215759816162    12.000000000000
         C           -1.465345276064     2.963758896092     1.244613979765    12.000000000000
         C           -1.016667431153     1.805117283580     2.099924424191    12.000000000000
         C            0.534966655853     1.506390601381     1.838238074834    12.000000000000
         O            0.304147394891    -3.967422599329    -1.518174059567    15.994914619570
         H            2.511988871762    -0.200211852140    -0.298155095215     1.007825032230
         H            2.509646814532    -2.483877998610    -1.155926120773     1.007825032230
         H           -1.739017411249    -2.637820102192    -0.837545756356     1.007825032230
         H           -1.772816694125    -0.345977893209     0.026708720882     1.007825032230
         H            0.822952608900     0.645877861908     2.426693736543     1.007825032230
         H            1.072608886885     2.408707856336     2.104992134078     1.007825032230
         H           -1.810800208056     1.832016572818    -0.563464144517     1.007825032230
         H           -1.434382787334     3.519565943559    -0.863072722350     1.007825032230
         H           -2.526530835733     3.139395519227     1.404742860099     1.007825032230
         H           -0.941803067034     3.870257623599     1.538529654235     1.007825032230
         H           -1.591892976761     0.907512964906     1.897340075962     1.007825032230
         H            0.473059264625     2.123093486478    -1.502960207560     1.007825032230
         H            0.872298960087     3.256063671955    -0.149365430174     1.007825032230
         H           -1.076097604864     2.006995324949     3.164077999241     1.007825032230
         H            1.185873777585    -4.297514286336    -1.720453046094     1.007825032230

*** Psi4 exiting successfully. Buy a developer a beer!
