                               Psi4 1.4 release

  ==> Input File <==

--------------------------------------------------------------------------
memory 62 GB

molecule mol {
0 1
C 0.00000000 0.00000000 0.00000000
C -1.33160900 -0.52821100 0.39484800
C -1.43071100 -1.45269700 1.36587800
C -2.62792500 -1.93591800 1.73239500
C -3.74244100 -1.49412800 1.13010500
C -3.65384200 -0.56756700 0.16376000
C -2.45408900 -0.08753000 -0.19926200
H -2.39924400 0.68070000 -0.98910300
H -4.56915100 -0.19773500 -0.33032400
H -4.72851800 -1.88886800 1.43070300
H -2.69633900 -2.69630400 2.52975600
H -0.52149000 -1.82349700 1.86898600
C 0.80291000 0.82866100 0.99372200
C 2.05469100 -0.01352700 1.29254400
C 2.33965600 -0.73613400 -0.03532100
C 0.96570300 -0.98706800 -0.64018800
H 0.68568600 -2.02295000 -0.82494200
C 0.34304200 0.10457800 -1.46989700
H -0.39656500 -0.20546400 -2.20363900
H 0.96769800 0.93522300 -1.78708200
H 2.89906800 -1.68689100 0.13106700
H 2.94532000 -0.09317900 -0.71653600
H 1.81957400 -0.76486100 2.08426400
H 2.91658800 0.60476700 1.63908400
H 0.22390900 1.05449200 1.91967800
H 1.08828700 1.79961000 0.52491500
}

set scf_type df
set basis cc-pVDZ
set reference rhf

mol.update_geometry()
mol.symmetrize(1e-3)

e, wfn = optimize('CCSD', return_wfn=True)
oeprop(wfn, "MULLIKEN_CHARGES")
mol.print_out()
print_variables()
--------------------------------------------------------------------------

    Molecular point group: c1
  Charge       = 0
  Multiplicity = 1
  Basis Set: CC-PVDZ
    Blend: CC-PVDZ
  Basis Set: (CC-PVDZ AUX)
    Blend: CC-PVDZ-JKFIT
  @DF-RHF Final Energy:  -462.55429484479828
    Total Energy =                       -462.5542948447982781
      * MP2 total energy                      = -464.196731989885166
      * CCSD total energy                     = -464.281170957589268
    Molecular point group: c1
  Basis Set: CC-PVDZ
    Blend: CC-PVDZ
  Basis Set: (CC-PVDZ AUX)
    Blend: CC-PVDZ-JKFIT
  @DF-RHF Final Energy:  -462.57090741472723
    Total Energy =                       -462.5709074147272304
      * MP2 total energy                      = -464.223401375381513
      * CCSD total energy                     = -464.308386881052911
  Basis Set: CC-PVDZ
    Blend: CC-PVDZ
  Basis Set: (CC-PVDZ AUX)
    Blend: CC-PVDZ-JKFIT
  @DF-RHF Final Energy:  -462.57194793947474
    Total Energy =                       -462.5719479394747395
      * MP2 total energy                      = -464.224124166610920
      * CCSD total energy                     = -464.309195646644412
  @DF-RHF Final Energy:  -462.57218396752427
    Total Energy =                       -462.5721839675243245
      * MP2 total energy                      = -464.224241685504808
      * CCSD total energy                     = -464.309350745643428
  @DF-RHF Final Energy:  -462.57227412642601
    Total Energy =                       -462.5722741264260094
      * MP2 total energy                      = -464.224235490520641
      * CCSD total energy                     = -464.309390240881783
  @DF-RHF Final Energy:  -462.57235709348851
    Total Energy =                       -462.5723570934885629
      * MP2 total energy                      = -464.224217758164059
      * CCSD total energy                     = -464.309401469968634
  @DF-RHF Final Energy:  -462.57241261058778
    Total Energy =                       -462.5724126105877758
      * MP2 total energy                      = -464.224205017000372
      * CCSD total energy                     = -464.309406253353188
    Blend: CC-PVDZ
  Basis Set: (CC-PVDZ AUX)
    Blend: CC-PVDZ-JKFIT
  @DF-RHF Final Energy:  -462.57243039372003
    Total Energy =                       -462.5724303937199693
      * MP2 total energy                      = -464.224198611020142
      * CCSD total energy                     = -464.309409956624961
  Basis Set: CC-PVDZ
    Blend: CC-PVDZ
  Basis Set: (CC-PVDZ AUX)
    Blend: CC-PVDZ-JKFIT
  @DF-RHF Final Energy:  -462.57246188031183
    Total Energy =                       -462.5724618803118346
      * MP2 total energy                      = -464.224198241468514
      * CCSD total energy                     = -464.309413053186972
  Multiplicity = 1
  Basis Set: CC-PVDZ
    Blend: CC-PVDZ
  Basis Set: (CC-PVDZ AUX)
    Blend: CC-PVDZ-JKFIT

    Orbital Energies [Eh]
    ---------------------

    Doubly Occupied:

       1A    -11.243690     2A    -11.240914     3A    -11.240479
       4A    -11.238717     5A    -11.238301     6A    -11.236921
       7A    -11.236279     8A    -11.231907     9A    -11.231284
      10A    -11.228399    11A    -11.228045    12A    -11.226862
      13A     -1.179029    14A     -1.134647    15A     -1.033774
      16A     -1.009612    17A     -1.005278    18A     -0.950310
      19A     -0.843002    20A     -0.821829    21A     -0.809668
      22A     -0.770765    23A     -0.736101    24A     -0.694163
      25A     -0.657026    26A     -0.629472    27A     -0.616174
      28A     -0.609148    29A     -0.577457    30A     -0.572682
      31A     -0.563360    32A     -0.562028    33A     -0.519505
      34A     -0.494989    35A     -0.488224    36A     -0.478202
      37A     -0.470220    38A     -0.466412    39A     -0.460099
      40A     -0.405459    41A     -0.386324    42A     -0.329650
      43A     -0.317300

  @DF-RHF Final Energy:  -462.57247309708214

   => Energetics <=

    Nuclear Repulsion Energy =            664.3523351870065881
    One-Electron Energy =               -1943.0222050699342162
    Two-Electron Energy =                 816.0973967858456035
    Total Energy =                       -462.5724730970821383

  Dipole Moment: [D]
     X:     0.2506      Y:    -0.0343      Z:     0.0655     Total:     0.2613

      * MP2 total energy                      = -464.224200706617239
      * CCSD total energy                     = -464.309413882017907
    Molecular point group: c1

  -Total gradient:
     Atom            X                  Y                   Z
    ------   -----------------  -----------------  -----------------
       1        0.000108946573     0.000040333495     0.000097526107
       2       -0.000045383972    -0.000002548345    -0.000059581702
       3        0.000010101923    -0.000007898400     0.000022060764
       4       -0.000006966452    -0.000013642595     0.000009496592
       5        0.000009807270     0.000008609470    -0.000003167839
       6       -0.000004872106     0.000000115338    -0.000001852395
       7       -0.000005051725    -0.000001708337    -0.000005439337
       8        0.000002973383    -0.000003012002     0.000003775237
       9        0.000002414090     0.000000429315     0.000001055679
      10       -0.000004380952     0.000000321462    -0.000002759656
      11        0.000002033448     0.000002183243    -0.000000565224
      12       -0.000000188224     0.000000207273    -0.000002809931
      13       -0.000051564911     0.000002390180    -0.000030818992
      14        0.000023522470     0.000004340828     0.000032557619
      15       -0.000014061344     0.000006518540    -0.000044223110
      16       -0.000011981267    -0.000004009375    -0.000014645096
      17       -0.000002763400     0.000000026679    -0.000003011700
      18       -0.000027619518    -0.000032560914     0.000000057349
      19        0.000005491548     0.000015639934    -0.000005476344
      20        0.000008833501    -0.000005254991    -0.000011183492
      21       -0.000004534343    -0.000000891686     0.000008257819
      22       -0.000001354404    -0.000004371115     0.000004748567
      23        0.000004147838     0.000001919258     0.000004427223
      24       -0.000003510221    -0.000000863979    -0.000007566645
      25        0.000004019247    -0.000009425855     0.000001674226
      26        0.000001941549     0.000003152578     0.000007464282

  **** Optimization is complete! (in 10 steps) ****
    Final optimized geometry and variables:
    Molecular point group: c1

  Mulliken Charges: (a.u.)
   Center  Symbol    Alpha    Beta     Spin     Total
       1     C     3.12072  3.12072  0.00000 -0.24145
       2     C     3.03732  3.03732  0.00000 -0.07465
       3     C     2.99129  2.99129  0.00000  0.01743
       4     C     3.00223  3.00223  0.00000 -0.00445
       5     C     3.00960  3.00960  0.00000 -0.01921
       6     C     3.00239  3.00239  0.00000 -0.00478
       7     C     2.99486  2.99486  0.00000  0.01027
       8     H     0.49715  0.49715  0.00000  0.00570
       9     H     0.49165  0.49165  0.00000  0.01670
      10     H     0.49195  0.49195  0.00000  0.01611
      11     H     0.49196  0.49196  0.00000  0.01609
      12     H     0.49853  0.49853  0.00000  0.00294
      13     C     2.97317  2.97317  0.00000  0.05365
      14     C     3.02201  3.02201  0.00000 -0.04402
      15     C     2.99315  2.99315  0.00000  0.01370
      16     C     3.05132  3.05132  0.00000 -0.10263
      17     H     0.49070  0.49070  0.00000  0.01860
      18     C     2.96504  2.96504  0.00000  0.06992
      19     H     0.48069  0.48069  0.00000  0.03862
      20     H     0.48525  0.48525  0.00000  0.02949
      21     H     0.48354  0.48354  0.00000  0.03292
      22     H     0.48474  0.48474  0.00000  0.03052
      23     H     0.48430  0.48430  0.00000  0.03140
      24     H     0.48788  0.48788  0.00000  0.02425
      25     H     0.48315  0.48315  0.00000  0.03370
      26     H     0.48541  0.48541  0.00000  0.02918

   Total alpha = 43.00000, Total beta = 43.00000, Total charge =  0.00000

    Molecular point group: c1

    Geometry (in Angstrom), charge = 0, multiplicity = 1:

       Center              X                  Y                   Z               Mass
    ------------   -----------------  -----------------  -----------------  -----------------
         C            0.732489884140     0.413341158584    -0.437279721066    12.000000000000
         C           -0.651282510235     0.025247810097     0.001997169823    12.000000000000
         C           -0.827570928852    -0.932672025440     1.021581081172    12.000000000000
         C           -2.111386719286    -1.275331908031     1.471774208021    12.000000000000
         C           -3.243029104392    -0.662255863987     0.906820076449    12.000000000000
         C           -3.079100656729     0.293346359500    -0.108029791634    12.000000000000
         C           -1.791073672505     0.634363789567    -0.554618537059    12.000000000000
         H           -1.666337633729     1.382431110578    -1.344945072417     1.007825032230
         H           -3.955449507691     0.775662644306    -0.553836426934     1.007825032230
         H           -4.245915451942    -0.930714917849     1.254377134488     1.007825032230
         H           -2.230587025373    -2.025115433507     2.261060834235     1.007825032230
         H            0.052749210240    -1.418837965321     1.457405628403     1.007825032230
         C            1.581010269422     1.306352896628     0.495432553490    12.000000000000
         C            2.865997999094     0.489066328599     0.764640611468    12.000000000000
         C            3.101589112644    -0.333040368533    -0.524914396015    12.000000000000
         C            1.693438021542    -0.587780172545    -1.077443656273    12.000000000000
         H            1.364292061885    -1.615482153097    -1.262983402602     1.007825032230
         C            1.063824291404     0.512091645443    -1.913425147419    12.000000000000
         H            0.287249024338     0.216742322137    -2.626536674008     1.007825032230
         H            1.705958268767     1.336514710768    -2.245651377539     1.007825032230
         H            3.635869491141    -1.276256373203    -0.319685980587     1.007825032230
         H            3.712732665511     0.235726047868    -1.250728314999     1.007825032230
         H            2.673763135456    -0.208908630891     1.601475421183     1.007825032230
         H            3.730045942878     1.115808934939     1.048019177351     1.007825032230
         H            1.036336415894     1.540762478966     1.425124693351     1.007825032230
         H            1.818453881696     2.267985192611     0.002826624719     1.007825032230

*** Psi4 exiting successfully. Buy a developer a beer!
