                               Psi4 1.4 release

  ==> Input File <==

--------------------------------------------------------------------------
molecule mol {
0 1
C 0.00000000 0.00000000 0.00000000
C -1.33160900 -0.52821100 0.39484800
C -1.43071100 -1.45269700 1.36587800
C -2.62792500 -1.93591800 1.73239500
C -3.74244100 -1.49412800 1.13010500
C -3.65384200 -0.56756700 0.16376000
C -2.45408900 -0.08753000 -0.19926200
H -2.39924400 0.68070000 -0.98910300
H -4.56915100 -0.19773500 -0.33032400
H -4.72851800 -1.88886800 1.43070300
H -2.69633900 -2.69630400 2.52975600
H -0.52149000 -1.82349700 1.86898600
C 0.80291000 0.82866100 0.99372200
C 2.05469100 -0.01352700 1.29254400
C 2.33965600 -0.73613400 -0.03532100
C 0.96570300 -0.98706800 -0.64018800
H 0.68568600 -2.02295000 -0.82494200
C 0.34304200 0.10457800 -1.46989700
H -0.39656500 -0.20546400 -2.20363900
H 0.96769800 0.93522300 -1.78708200
H 2.89906800 -1.68689100 0.13106700
H 2.94532000 -0.09317900 -0.71653600
H 1.81957400 -0.76486100 2.08426400
H 2.91658800 0.60476700 1.63908400
H 0.22390900 1.05449200 1.91967800
H 1.08828700 1.79961000 0.52491500
}

set scf_type df
set basis cc-pVTZ
set reference rhf

mol.update_geometry()
mol.symmetrize(1e-3)

e, wfn = optimize('mp2', return_wfn=True)
oeprop(wfn, "MULLIKEN_CHARGES")
mol.print_out()
print_variables()
--------------------------------------------------------------------------

    Molecular point group: c1
  Charge       = 0
  Multiplicity = 1
  Basis Set: CC-PVTZ
    Blend: CC-PVTZ
  Basis Set: (CC-PVTZ AUX)
    Blend: CC-PVTZ-JKFIT
  @DF-RHF Final Energy:  -462.66951450590329
    Total Energy =                       -462.6695145059032939
  Basis Set: (CC-PVTZ AUX)
    Blend: CC-PVTZ-RI
    Molecular point group: c1
  Basis Set: CC-PVTZ
    Blend: CC-PVTZ
  Basis Set: (CC-PVTZ AUX)
    Blend: CC-PVTZ-JKFIT
  Basis Set: (CC-PVTZ AUX)
    Blend: CC-PVTZ-JKFIT
	 Reference Energy          =    -462.6695145059032939 [Eh]
	 Singles Energy            =      -0.0000000000000000 [Eh]
	 Same-Spin Energy          =      -0.5152174596109896 [Eh]
	 Opposite-Spin Energy      =      -1.6331724134134848 [Eh]
	 Correlation Energy        =      -2.1483898730244744 [Eh]
	 Total Energy              =    -464.8179043789277785 [Eh]
	 SCS Total Energy          =    -464.8010605552031507 [Eh]
  @DF-RHF Final Energy:  -462.68841690468724
    Total Energy =                       -462.6884169046873012
  @DF-RHF Final Energy:  -462.68904038944072
    Total Energy =                       -462.6890403894407200
  @DF-RHF Final Energy:  -462.68915865904876
    Total Energy =                       -462.6891586590487577
  @DF-RHF Final Energy:  -462.68917621524218
    Total Energy =                       -462.6891762152421279
  @DF-RHF Final Energy:  -462.68917533027002
    Total Energy =                       -462.6891753302700181
  @DF-RHF Final Energy:  -462.68915039205865
    Total Energy =                       -462.6891503920586501
  @DF-RHF Final Energy:  -462.68911342840204
    Total Energy =                       -462.6891134284020382
  @DF-RHF Final Energy:  -462.68907323759061
    Total Energy =                       -462.6890732375906055
  @DF-RHF Final Energy:  -462.68903204422708
    Total Energy =                       -462.6890320442271332
  @DF-RHF Final Energy:  -462.68889462136741
    Total Energy =                       -462.6888946213674672
  @DF-RHF Final Energy:  -462.68874928263801
    Total Energy =                       -462.6887492826380139
  @DF-RHF Final Energy:  -462.68871349936757
    Total Energy =                       -462.6887134993676227
  Multiplicity = 1
  Basis Set: CC-PVTZ
    Blend: CC-PVTZ
  Basis Set: (CC-PVTZ AUX)
    Blend: CC-PVTZ-JKFIT

    Orbital Energies [Eh]
    ---------------------

    Doubly Occupied:

       1A    -11.232835     2A    -11.228848     3A    -11.227778
       4A    -11.227205     5A    -11.223989     6A    -11.223086
       7A    -11.222342     8A    -11.221025     9A    -11.218650
      10A    -11.215314    11A    -11.215139    12A    -11.214127
      13A     -1.190727    14A     -1.143254    15A     -1.042499
      16A     -1.017554    17A     -1.009499    18A     -0.956342
      19A     -0.850918    20A     -0.828015    21A     -0.812103
      22A     -0.778814    23A     -0.742489    24A     -0.705548
      25A     -0.661773    26A     -0.640428    27A     -0.622884
      28A     -0.613543    29A     -0.587078    30A     -0.577652
      31A     -0.568846    32A     -0.566521    33A     -0.522298
      34A     -0.504332    35A     -0.491321    36A     -0.482150
      37A     -0.474336    38A     -0.470582    39A     -0.465317
      40A     -0.408833    41A     -0.394540    42A     -0.333219
      43A     -0.314027

  @DF-RHF Final Energy:  -462.68867285051931

   => Energetics <=

    Nuclear Repulsion Energy =            674.1824097481836588
    One-Electron Energy =               -1962.8465985492916843
    Two-Electron Energy =                 825.9755159505888287
    Total Energy =                       -462.6886728505193105

  Dipole Moment: [D]
     X:     0.3860      Y:    -0.0108      Z:     0.0242     Total:     0.3869

  Basis Set: (CC-PVTZ AUX)
    Blend: CC-PVTZ-RI
    Molecular point group: c1
  Basis Set: CC-PVTZ
    Blend: CC-PVTZ
  Basis Set: (CC-PVTZ AUX)
    Blend: CC-PVTZ-JKFIT
  Basis Set: (CC-PVTZ AUX)
    Blend: CC-PVTZ-JKFIT
	 Reference Energy          =    -462.6886728505193105 [Eh]
	 Singles Energy            =      -0.0000000000000000 [Eh]
	 Same-Spin Energy          =      -0.5153110160471710 [Eh]
	 Opposite-Spin Energy      =      -1.6342778355766647 [Eh]
	 Correlation Energy        =      -2.1495888516238360 [Eh]
	 Total Energy              =    -464.8382617021431429 [Eh]

	 ================> DF-SCS-MP2 Energies <==================
	-----------------------------------------------------------
	 SCS Same-Spin Scale       =       0.3333333333333333 [-]
	 SCS Opposite-Spin Scale   =       1.2000000000000000 [-]
	 SCS Same-Spin Energy      =      -0.1717703386823903 [Eh]
	 SCS Opposite-Spin Energy  =      -1.9611334026919975 [Eh]
	 SCS Correlation Energy    =      -2.1329037413743879 [Eh]
	 SCS Total Energy          =    -464.8215765918936881 [Eh]
	-----------------------------------------------------------

  -Total Gradient:
     Atom            X                  Y                   Z
    ------   -----------------  -----------------  -----------------
       1        0.000019036363    -0.000002646670     0.000014427617
       2       -0.000034643026     0.000014233209    -0.000030864970
       3        0.000015687431    -0.000006803582     0.000004870085
       4        0.000002014486    -0.000003139336     0.000006551322
       5       -0.000000770410     0.000002913162    -0.000005570341
       6       -0.000015099328    -0.000006059182     0.000006125926
       7        0.000026689605     0.000006368018     0.000007633572
       8       -0.000001788686     0.000000549023    -0.000001582162
       9       -0.000000959631     0.000000956712    -0.000002220348
      10        0.000001716760     0.000001289465    -0.000001764517
      11        0.000000804590     0.000000063907     0.000000292863
      12        0.000002107534    -0.000000499474     0.000001014917
      13       -0.000005131768     0.000004458907    -0.000009398109
      14       -0.000005211759    -0.000002603701     0.000002673904
      15       -0.000000466759     0.000009253604    -0.000007761396
      16       -0.000007714040    -0.000017065364     0.000006832762
      17        0.000002080668     0.000001146545    -0.000001706826
      18        0.000009443279     0.000009754488     0.000000801927
      19       -0.000003881668    -0.000005047547     0.000003417457
      20       -0.000002190151    -0.000000492464    -0.000002213063
      21       -0.000000683877    -0.000001580503     0.000003048504
      22        0.000001919502    -0.000003695686    -0.000000137212
      23        0.000002254431     0.000002311014     0.000001432635
      24        0.000000532050     0.000000022945    -0.000003359539
      25       -0.000000843734    -0.000004608964     0.000002552709
      26       -0.000004901860     0.000000921480     0.000004902273

  **** Optimization is complete! (in 14 steps) ****
    Final optimized geometry and variables:
    Molecular point group: c1

  Mulliken Charges: (a.u.)
   Center  Symbol    Alpha    Beta     Spin     Total
       1     C     2.97832  2.97832  0.00000  0.04337
       2     C     2.93707  2.93707  0.00000  0.12587
       3     C     3.08214  3.08214  0.00000 -0.16429
       4     C     3.07600  3.07600  0.00000 -0.15200
       5     C     3.08602  3.08602  0.00000 -0.17204
       6     C     3.07520  3.07520  0.00000 -0.15040
       7     C     3.08141  3.08141  0.00000 -0.16283
       8     H     0.42334  0.42334  0.00000  0.15331
       9     H     0.42488  0.42488  0.00000  0.15024
      10     H     0.42421  0.42421  0.00000  0.15158
      11     H     0.42513  0.42513  0.00000  0.14974
      12     H     0.42287  0.42287  0.00000  0.15425
      13     C     3.14681  3.14681  0.00000 -0.29361
      14     C     3.11732  3.11732  0.00000 -0.23464
      15     C     3.13799  3.13799  0.00000 -0.27597
      16     C     3.04823  3.04823  0.00000 -0.09646
      17     H     0.42399  0.42399  0.00000  0.15202
      18     C     3.21344  3.21344  0.00000 -0.42688
      19     H     0.42786  0.42786  0.00000  0.14428
      20     H     0.43528  0.43528  0.00000  0.12944
      21     H     0.43285  0.43285  0.00000  0.13430
      22     H     0.43750  0.43750  0.00000  0.12500
      23     H     0.44090  0.44090  0.00000  0.11820
      24     H     0.43418  0.43418  0.00000  0.13164
      25     H     0.43098  0.43098  0.00000  0.13803
      26     H     0.43607  0.43607  0.00000  0.12785

   Total alpha = 43.00000, Total beta = 43.00000, Total charge =  0.00000

    Molecular point group: c1

    Geometry (in Angstrom), charge = 0, multiplicity = 1:

       Center              X                  Y                   Z               Mass
    ------------   -----------------  -----------------  -----------------  -----------------
         C            0.692009551241     0.505560914883    -0.407154088225    12.000000000000
         C           -0.641946814275     0.014661390338    -0.014088508388    12.000000000000
         C           -0.785050116290    -0.698137937325     1.176127362559    12.000000000000
         C           -2.023060672166    -1.167357745222     1.583321026470    12.000000000000
         C           -3.147502266391    -0.931527207526     0.801626489141    12.000000000000
         C           -3.019903471897    -0.221107152927    -0.382598776535    12.000000000000
         C           -1.776344940713     0.249750736255    -0.782630371500    12.000000000000
         H           -1.686815048045     0.815607886493    -1.695214339915     1.007825032230
         H           -3.886694521878    -0.028301696969    -0.992102558830     1.007825032230
         H           -4.110550209304    -1.297369036288     1.113447521418     1.007825032230
         H           -2.111833842632    -1.719580659972     2.503842653221     1.007825032230
         H            0.086681839678    -0.893356836350     1.781119725978     1.007825032230
         C            1.477675749783     1.365823528544     0.576932181447    12.000000000000
         C            2.752401134309     0.571217622418     0.856628151935    12.000000000000
         C            3.067739661235    -0.126898978706    -0.466994215584    12.000000000000
         C            1.706933587446    -0.406880791232    -1.069760368671    12.000000000000
         H            1.422816693432    -1.417669930121    -1.309972158727     1.007825032230
         C            1.050299893883     0.695218867281    -1.847274255217    12.000000000000
         H            0.327811932237     0.405376559827    -2.591140053077     1.007825032230
         H            1.652776360494     1.552845212787    -2.102137210286     1.007825032230
         H            3.639607583961    -1.037555235836    -0.322267245873     1.007825032230
         H            3.650282108561     0.524796392712    -1.115992651848     1.007825032230
         H            2.530915442537    -0.188526308432     1.603539222400     1.007825032230
         H            3.569409265829     1.180071527666     1.233168158048     1.007825032230
         H            0.901309428360     1.556134575049     1.476549245831     1.007825032230
         H            1.715008983488     2.329703007652     0.129792817527     1.007825032230

*** Psi4 exiting successfully. Buy a developer a beer!
